0.00000  0  0  4  0  cwnd_ 2.000 
0.00000  0  0  4  0  ssthresh_ 20
0.00000  0  0  4  0  ack_ -1
0.00000  0  0  4  0  maxseq_ -1
0.00000  0  0  4  0  rtt_ 0.000 
0.00000  1  0  5  0  cwnd_ 2.000 
0.00000  1  0  5  0  ssthresh_ 20
0.00000  1  0  5  0  ack_ -1
0.00000  1  0  5  0  maxseq_ -1
0.00000  1  0  5  0  rtt_ 0.000 
0.00000  0  0  4  0  ssthresh_ 1000
0.00000  1  0  5  0  ssthresh_ 1000
+ 0 1 2 tcp 40 ------- 2 1.0 5.0 0 0
- 0 1 2 tcp 40 ------- 2 1.0 5.0 0 0
0.00000  1  0  5  0  maxseq_ 0
+ 0 1 2 tcp 1040 ------- 2 1.0 5.0 1 1
0.00000  1  0  5  0  maxseq_ 1
+ 0 0 2 tcp 40 ------- 1 0.0 4.0 0 2
- 0 0 2 tcp 40 ------- 1 0.0 4.0 0 2
0.00000  0  0  4  0  maxseq_ 0
+ 0 0 2 tcp 1040 ------- 1 0.0 4.0 1 3
0.00000  0  0  4  0  maxseq_ 1
- 0 1 2 tcp 1040 ------- 2 1.0 5.0 1 1
- 0 0 2 tcp 1040 ------- 1 0.0 4.0 1 3
r 0.589 0 2 tcp 40 ------- 1 0.0 4.0 0 2
+ 0.589 2 3 tcp 40 ------- 1 0.0 4.0 0 2
- 0.589 2 3 tcp 40 ------- 1 0.0 4.0 0 2
r 0.589002 0 2 tcp 1040 ------- 1 0.0 4.0 1 3
+ 0.589002 2 3 tcp 1040 ------- 1 0.0 4.0 1 3
- 0.589002 2 3 tcp 1040 ------- 1 0.0 4.0 1 3
r 0.639 2 3 tcp 40 ------- 1 0.0 4.0 0 2
+ 0.639 3 4 tcp 40 ------- 1 0.0 4.0 0 2
- 0.639 3 4 tcp 40 ------- 1 0.0 4.0 0 2
r 0.63901 2 3 tcp 1040 ------- 1 0.0 4.0 1 3
+ 0.63901 3 4 tcp 1040 ------- 1 0.0 4.0 1 3
- 0.63901 3 4 tcp 1040 ------- 1 0.0 4.0 1 3
r 0.867 1 2 tcp 40 ------- 2 1.0 5.0 0 0
+ 0.867 2 3 tcp 40 ------- 2 1.0 5.0 0 0
- 0.867 2 3 tcp 40 ------- 2 1.0 5.0 0 0
r 0.867002 1 2 tcp 1040 ------- 2 1.0 5.0 1 1
+ 0.867002 2 3 tcp 1040 ------- 2 1.0 5.0 1 1
- 0.867002 2 3 tcp 1040 ------- 2 1.0 5.0 1 1
r 0.917 2 3 tcp 40 ------- 2 1.0 5.0 0 0
+ 0.917 3 5 tcp 40 ------- 2 1.0 5.0 0 0
- 0.917 3 5 tcp 40 ------- 2 1.0 5.0 0 0
r 0.91701 2 3 tcp 1040 ------- 2 1.0 5.0 1 1
+ 0.91701 3 5 tcp 1040 ------- 2 1.0 5.0 1 1
- 0.91701 3 5 tcp 1040 ------- 2 1.0 5.0 1 1
r 1.228 3 4 tcp 40 ------- 1 0.0 4.0 0 2
+ 1.228 4 3 ack 40 ------- 1 4.0 0.0 0 4
- 1.228 4 3 ack 40 ------- 1 4.0 0.0 0 4
r 1.228013 3 4 tcp 1040 ------- 1 0.0 4.0 1 3
+ 1.228013 4 3 ack 40 ------- 1 4.0 0.0 1 5
- 1.228013 4 3 ack 40 ------- 1 4.0 0.0 1 5
r 1.784 3 5 tcp 40 ------- 2 1.0 5.0 0 0
+ 1.784 5 3 ack 40 ------- 2 5.0 1.0 0 6
- 1.784 5 3 ack 40 ------- 2 5.0 1.0 0 6
r 1.784013 3 5 tcp 1040 ------- 2 1.0 5.0 1 1
+ 1.784013 5 3 ack 40 ------- 2 5.0 1.0 1 7
- 1.784013 5 3 ack 40 ------- 2 5.0 1.0 1 7
r 1.817001 4 3 ack 40 ------- 1 4.0 0.0 0 4
+ 1.817001 3 2 ack 40 ------- 1 4.0 0.0 0 4
- 1.817001 3 2 ack 40 ------- 1 4.0 0.0 0 4
r 1.817013 4 3 ack 40 ------- 1 4.0 0.0 1 5
+ 1.817013 3 2 ack 40 ------- 1 4.0 0.0 1 5
- 1.817013 3 2 ack 40 ------- 1 4.0 0.0 1 5
r 1.867001 3 2 ack 40 ------- 1 4.0 0.0 0 4
+ 1.867001 2 0 ack 40 ------- 1 4.0 0.0 0 4
- 1.867001 2 0 ack 40 ------- 1 4.0 0.0 0 4
r 1.867013 3 2 ack 40 ------- 1 4.0 0.0 1 5
+ 1.867013 2 0 ack 40 ------- 1 4.0 0.0 1 5
- 1.867013 2 0 ack 40 ------- 1 4.0 0.0 1 5
r 2.456001 2 0 ack 40 ------- 1 4.0 0.0 0 4
2.45600  0  0  4  0  ack_ 0
2.45600  0  0  4  0  rtt_ 2.456 
2.45600  0  0  4  0  cwnd_ 3.000 
+ 2.456001 0 2 tcp 1040 ------- 1 0.0 4.0 2 8
- 2.456001 0 2 tcp 1040 ------- 1 0.0 4.0 2 8
2.45600  0  0  4  0  maxseq_ 2
+ 2.456001 0 2 tcp 1040 ------- 1 0.0 4.0 3 9
2.45600  0  0  4  0  maxseq_ 3
- 2.456003 0 2 tcp 1040 ------- 1 0.0 4.0 3 9
r 2.456013 2 0 ack 40 ------- 1 4.0 0.0 1 5
2.45601  0  0  4  0  ack_ 1
2.45601  0  0  4  0  cwnd_ 4.000 
+ 2.456013 0 2 tcp 1040 ------- 1 0.0 4.0 4 10
- 2.456013 0 2 tcp 1040 ------- 1 0.0 4.0 4 10
2.45601  0  0  4  0  maxseq_ 4
+ 2.456013 0 2 tcp 1040 ------- 1 0.0 4.0 5 11
2.45601  0  0  4  0  maxseq_ 5
- 2.456015 0 2 tcp 1040 ------- 1 0.0 4.0 5 11
r 2.651001 5 3 ack 40 ------- 2 5.0 1.0 0 6
+ 2.651001 3 2 ack 40 ------- 2 5.0 1.0 0 6
- 2.651001 3 2 ack 40 ------- 2 5.0 1.0 0 6
r 2.651013 5 3 ack 40 ------- 2 5.0 1.0 1 7
+ 2.651013 3 2 ack 40 ------- 2 5.0 1.0 1 7
- 2.651013 3 2 ack 40 ------- 2 5.0 1.0 1 7
r 2.701001 3 2 ack 40 ------- 2 5.0 1.0 0 6
+ 2.701001 2 1 ack 40 ------- 2 5.0 1.0 0 6
- 2.701001 2 1 ack 40 ------- 2 5.0 1.0 0 6
r 2.701013 3 2 ack 40 ------- 2 5.0 1.0 1 7
+ 2.701013 2 1 ack 40 ------- 2 5.0 1.0 1 7
- 2.701013 2 1 ack 40 ------- 2 5.0 1.0 1 7
3.00000  1  0  5  0  cwnd_ 1.000 
3.00000  1  0  5  0  ssthresh_ 2
+ 3 1 2 tcp 40 ---A--- 2 1.0 5.0 0 12
- 3 1 2 tcp 40 ---A--- 2 1.0 5.0 0 12
r 3.045003 0 2 tcp 1040 ------- 1 0.0 4.0 2 8
+ 3.045003 2 3 tcp 1040 ------- 1 0.0 4.0 2 8
- 3.045003 2 3 tcp 1040 ------- 1 0.0 4.0 2 8
r 3.045005 0 2 tcp 1040 ------- 1 0.0 4.0 3 9
+ 3.045005 2 3 tcp 1040 ------- 1 0.0 4.0 3 9
- 3.045011 2 3 tcp 1040 ------- 1 0.0 4.0 3 9
r 3.045015 0 2 tcp 1040 ------- 1 0.0 4.0 4 10
+ 3.045015 2 3 tcp 1040 ------- 1 0.0 4.0 4 10
r 3.045017 0 2 tcp 1040 ------- 1 0.0 4.0 5 11
+ 3.045017 2 3 tcp 1040 ------- 1 0.0 4.0 5 11
- 3.04502 2 3 tcp 1040 ------- 1 0.0 4.0 4 10
- 3.045028 2 3 tcp 1040 ------- 1 0.0 4.0 5 11
r 3.095011 2 3 tcp 1040 ------- 1 0.0 4.0 2 8
+ 3.095011 3 4 tcp 1040 ------- 1 0.0 4.0 2 8
- 3.095011 3 4 tcp 1040 ------- 1 0.0 4.0 2 8
r 3.09502 2 3 tcp 1040 ------- 1 0.0 4.0 3 9
+ 3.09502 3 4 tcp 1040 ------- 1 0.0 4.0 3 9
- 3.09502 3 4 tcp 1040 ------- 1 0.0 4.0 3 9
r 3.095028 2 3 tcp 1040 ------- 1 0.0 4.0 4 10
+ 3.095028 3 4 tcp 1040 ------- 1 0.0 4.0 4 10
- 3.095028 3 4 tcp 1040 ------- 1 0.0 4.0 4 10
r 3.095036 2 3 tcp 1040 ------- 1 0.0 4.0 5 11
+ 3.095036 3 4 tcp 1040 ------- 1 0.0 4.0 5 11
- 3.095036 3 4 tcp 1040 ------- 1 0.0 4.0 5 11
r 3.568001 2 1 ack 40 ------- 2 5.0 1.0 0 6
3.56800  1  0  5  0  ack_ 0
3.56800  1  0  5  0  cwnd_ 2.000 
+ 3.568001 1 2 tcp 1040 ------- 2 1.0 5.0 1 13
- 3.568001 1 2 tcp 1040 ------- 2 1.0 5.0 1 13
+ 3.568001 1 2 tcp 1040 ------- 2 1.0 5.0 2 14
3.56800  1  0  5  0  maxseq_ 2
- 3.568003 1 2 tcp 1040 ------- 2 1.0 5.0 2 14
r 3.568013 2 1 ack 40 ------- 2 5.0 1.0 1 7
3.56801  1  0  5  0  ack_ 1
3.56801  1  0  5  0  cwnd_ 3.000 
+ 3.568013 1 2 tcp 1040 ------- 2 1.0 5.0 3 15
- 3.568013 1 2 tcp 1040 ------- 2 1.0 5.0 3 15
3.56801  1  0  5  0  maxseq_ 3
+ 3.568013 1 2 tcp 1040 ------- 2 1.0 5.0 4 16
3.56801  1  0  5  0  maxseq_ 4
- 3.568015 1 2 tcp 1040 ------- 2 1.0 5.0 4 16
r 3.684013 3 4 tcp 1040 ------- 1 0.0 4.0 2 8
+ 3.684013 4 3 ack 40 ------- 1 4.0 0.0 2 17
- 3.684013 4 3 ack 40 ------- 1 4.0 0.0 2 17
r 3.684022 3 4 tcp 1040 ------- 1 0.0 4.0 3 9
+ 3.684022 4 3 ack 40 ------- 1 4.0 0.0 3 18
- 3.684022 4 3 ack 40 ------- 1 4.0 0.0 3 18
r 3.68403 3 4 tcp 1040 ------- 1 0.0 4.0 4 10
+ 3.68403 4 3 ack 40 ------- 1 4.0 0.0 4 19
- 3.68403 4 3 ack 40 ------- 1 4.0 0.0 4 19
r 3.684038 3 4 tcp 1040 ------- 1 0.0 4.0 5 11
+ 3.684038 4 3 ack 40 ------- 1 4.0 0.0 5 20
- 3.684038 4 3 ack 40 ------- 1 4.0 0.0 5 20
r 3.867 1 2 tcp 40 ---A--- 2 1.0 5.0 0 12
+ 3.867 2 3 tcp 40 ---A--- 2 1.0 5.0 0 12
- 3.867 2 3 tcp 40 ---A--- 2 1.0 5.0 0 12
r 3.917 2 3 tcp 40 ---A--- 2 1.0 5.0 0 12
+ 3.917 3 5 tcp 40 ---A--- 2 1.0 5.0 0 12
- 3.917 3 5 tcp 40 ---A--- 2 1.0 5.0 0 12
r 4.273014 4 3 ack 40 ------- 1 4.0 0.0 2 17
+ 4.273014 3 2 ack 40 ------- 1 4.0 0.0 2 17
- 4.273014 3 2 ack 40 ------- 1 4.0 0.0 2 17
r 4.273022 4 3 ack 40 ------- 1 4.0 0.0 3 18
+ 4.273022 3 2 ack 40 ------- 1 4.0 0.0 3 18
- 4.273022 3 2 ack 40 ------- 1 4.0 0.0 3 18
r 4.27303 4 3 ack 40 ------- 1 4.0 0.0 4 19
+ 4.27303 3 2 ack 40 ------- 1 4.0 0.0 4 19
- 4.27303 3 2 ack 40 ------- 1 4.0 0.0 4 19
r 4.273038 4 3 ack 40 ------- 1 4.0 0.0 5 20
+ 4.273038 3 2 ack 40 ------- 1 4.0 0.0 5 20
- 4.273038 3 2 ack 40 ------- 1 4.0 0.0 5 20
r 4.323014 3 2 ack 40 ------- 1 4.0 0.0 2 17
+ 4.323014 2 0 ack 40 ------- 1 4.0 0.0 2 17
- 4.323014 2 0 ack 40 ------- 1 4.0 0.0 2 17
r 4.323022 3 2 ack 40 ------- 1 4.0 0.0 3 18
+ 4.323022 2 0 ack 40 ------- 1 4.0 0.0 3 18
- 4.323022 2 0 ack 40 ------- 1 4.0 0.0 3 18
r 4.32303 3 2 ack 40 ------- 1 4.0 0.0 4 19
+ 4.32303 2 0 ack 40 ------- 1 4.0 0.0 4 19
- 4.32303 2 0 ack 40 ------- 1 4.0 0.0 4 19
r 4.323039 3 2 ack 40 ------- 1 4.0 0.0 5 20
+ 4.323039 2 0 ack 40 ------- 1 4.0 0.0 5 20
- 4.323039 2 0 ack 40 ------- 1 4.0 0.0 5 20
r 4.435003 1 2 tcp 1040 ------- 2 1.0 5.0 1 13
+ 4.435003 2 3 tcp 1040 ------- 2 1.0 5.0 1 13
- 4.435003 2 3 tcp 1040 ------- 2 1.0 5.0 1 13
r 4.435005 1 2 tcp 1040 ------- 2 1.0 5.0 2 14
+ 4.435005 2 3 tcp 1040 ------- 2 1.0 5.0 2 14
- 4.435011 2 3 tcp 1040 ------- 2 1.0 5.0 2 14
r 4.435015 1 2 tcp 1040 ------- 2 1.0 5.0 3 15
+ 4.435015 2 3 tcp 1040 ------- 2 1.0 5.0 3 15
r 4.435017 1 2 tcp 1040 ------- 2 1.0 5.0 4 16
+ 4.435017 2 3 tcp 1040 ------- 2 1.0 5.0 4 16
- 4.43502 2 3 tcp 1040 ------- 2 1.0 5.0 3 15
- 4.435028 2 3 tcp 1040 ------- 2 1.0 5.0 4 16
r 4.485011 2 3 tcp 1040 ------- 2 1.0 5.0 1 13
+ 4.485011 3 5 tcp 1040 ------- 2 1.0 5.0 1 13
- 4.485011 3 5 tcp 1040 ------- 2 1.0 5.0 1 13
r 4.48502 2 3 tcp 1040 ------- 2 1.0 5.0 2 14
+ 4.48502 3 5 tcp 1040 ------- 2 1.0 5.0 2 14
- 4.48502 3 5 tcp 1040 ------- 2 1.0 5.0 2 14
r 4.485028 2 3 tcp 1040 ------- 2 1.0 5.0 3 15
+ 4.485028 3 5 tcp 1040 ------- 2 1.0 5.0 3 15
- 4.485028 3 5 tcp 1040 ------- 2 1.0 5.0 3 15
r 4.485036 2 3 tcp 1040 ------- 2 1.0 5.0 4 16
+ 4.485036 3 5 tcp 1040 ------- 2 1.0 5.0 4 16
- 4.485036 3 5 tcp 1040 ------- 2 1.0 5.0 4 16
r 4.784 3 5 tcp 40 ---A--- 2 1.0 5.0 0 12
+ 4.784 5 3 ack 40 ------- 2 5.0 1.0 1 21
- 4.784 5 3 ack 40 ------- 2 5.0 1.0 1 21
r 4.912014 2 0 ack 40 ------- 1 4.0 0.0 2 17
4.91201  0  0  4  0  ack_ 2
4.91201  0  0  4  0  cwnd_ 5.000 
+ 4.912014 0 2 tcp 1040 ------- 1 0.0 4.0 6 22
- 4.912014 0 2 tcp 1040 ------- 1 0.0 4.0 6 22
4.91201  0  0  4  0  maxseq_ 6
+ 4.912014 0 2 tcp 1040 ------- 1 0.0 4.0 7 23
4.91201  0  0  4  0  maxseq_ 7
- 4.912016 0 2 tcp 1040 ------- 1 0.0 4.0 7 23
r 4.912022 2 0 ack 40 ------- 1 4.0 0.0 3 18
4.91202  0  0  4  0  ack_ 3
4.91202  0  0  4  0  cwnd_ 6.000 
+ 4.912022 0 2 tcp 1040 ------- 1 0.0 4.0 8 24
- 4.912022 0 2 tcp 1040 ------- 1 0.0 4.0 8 24
4.91202  0  0  4  0  maxseq_ 8
+ 4.912022 0 2 tcp 1040 ------- 1 0.0 4.0 9 25
4.91202  0  0  4  0  maxseq_ 9
- 4.912024 0 2 tcp 1040 ------- 1 0.0 4.0 9 25
r 4.912031 2 0 ack 40 ------- 1 4.0 0.0 4 19
4.91203  0  0  4  0  ack_ 4
4.91203  0  0  4  0  cwnd_ 7.000 
+ 4.912031 0 2 tcp 1040 ------- 1 0.0 4.0 10 26
- 4.912031 0 2 tcp 1040 ------- 1 0.0 4.0 10 26
4.91203  0  0  4  0  maxseq_ 10
+ 4.912031 0 2 tcp 1040 ------- 1 0.0 4.0 11 27
4.91203  0  0  4  0  maxseq_ 11
- 4.912033 0 2 tcp 1040 ------- 1 0.0 4.0 11 27
r 4.912039 2 0 ack 40 ------- 1 4.0 0.0 5 20
4.91204  0  0  4  0  ack_ 5
4.91204  0  0  4  0  cwnd_ 8.000 
+ 4.912039 0 2 tcp 1040 ------- 1 0.0 4.0 12 28
- 4.912039 0 2 tcp 1040 ------- 1 0.0 4.0 12 28
4.91204  0  0  4  0  maxseq_ 12
+ 4.912039 0 2 tcp 1040 ------- 1 0.0 4.0 13 29
4.91204  0  0  4  0  maxseq_ 13
- 4.912041 0 2 tcp 1040 ------- 1 0.0 4.0 13 29
r 5.352013 3 5 tcp 1040 ------- 2 1.0 5.0 1 13
+ 5.352013 5 3 ack 40 ------- 2 5.0 1.0 1 30
- 5.352013 5 3 ack 40 ------- 2 5.0 1.0 1 30
r 5.352022 3 5 tcp 1040 ------- 2 1.0 5.0 2 14
+ 5.352022 5 3 ack 40 ------- 2 5.0 1.0 2 31
- 5.352022 5 3 ack 40 ------- 2 5.0 1.0 2 31
r 5.35203 3 5 tcp 1040 ------- 2 1.0 5.0 3 15
+ 5.35203 5 3 ack 40 ------- 2 5.0 1.0 3 32
- 5.35203 5 3 ack 40 ------- 2 5.0 1.0 3 32
r 5.352038 3 5 tcp 1040 ------- 2 1.0 5.0 4 16
+ 5.352038 5 3 ack 40 ------- 2 5.0 1.0 4 33
- 5.352038 5 3 ack 40 ------- 2 5.0 1.0 4 33
r 5.501016 0 2 tcp 1040 ------- 1 0.0 4.0 6 22
+ 5.501016 2 3 tcp 1040 ------- 1 0.0 4.0 6 22
- 5.501016 2 3 tcp 1040 ------- 1 0.0 4.0 6 22
r 5.501018 0 2 tcp 1040 ------- 1 0.0 4.0 7 23
+ 5.501018 2 3 tcp 1040 ------- 1 0.0 4.0 7 23
r 5.501024 0 2 tcp 1040 ------- 1 0.0 4.0 8 24
+ 5.501024 2 3 tcp 1040 ------- 1 0.0 4.0 8 24
- 5.501024 2 3 tcp 1040 ------- 1 0.0 4.0 7 23
r 5.501026 0 2 tcp 1040 ------- 1 0.0 4.0 9 25
+ 5.501026 2 3 tcp 1040 ------- 1 0.0 4.0 9 25
r 5.501033 0 2 tcp 1040 ------- 1 0.0 4.0 10 26
+ 5.501033 2 3 tcp 1040 ------- 1 0.0 4.0 10 26
- 5.501033 2 3 tcp 1040 ------- 1 0.0 4.0 8 24
r 5.501035 0 2 tcp 1040 ------- 1 0.0 4.0 11 27
+ 5.501035 2 3 tcp 1040 ------- 1 0.0 4.0 11 27
r 5.501041 0 2 tcp 1040 ------- 1 0.0 4.0 12 28
+ 5.501041 2 3 tcp 1040 ------- 1 0.0 4.0 12 28
- 5.501041 2 3 tcp 1040 ------- 1 0.0 4.0 9 25
r 5.501043 0 2 tcp 1040 ------- 1 0.0 4.0 13 29
+ 5.501043 2 3 tcp 1040 ------- 1 0.0 4.0 13 29
- 5.501049 2 3 tcp 1040 ------- 1 0.0 4.0 10 26
- 5.501058 2 3 tcp 1040 ------- 1 0.0 4.0 11 27
- 5.501066 2 3 tcp 1040 ------- 1 0.0 4.0 12 28
- 5.501074 2 3 tcp 1040 ------- 1 0.0 4.0 13 29
r 5.551024 2 3 tcp 1040 ------- 1 0.0 4.0 6 22
+ 5.551024 3 4 tcp 1040 ------- 1 0.0 4.0 6 22
- 5.551024 3 4 tcp 1040 ------- 1 0.0 4.0 6 22
r 5.551033 2 3 tcp 1040 ------- 1 0.0 4.0 7 23
+ 5.551033 3 4 tcp 1040 ------- 1 0.0 4.0 7 23
- 5.551033 3 4 tcp 1040 ------- 1 0.0 4.0 7 23
r 5.551041 2 3 tcp 1040 ------- 1 0.0 4.0 8 24
+ 5.551041 3 4 tcp 1040 ------- 1 0.0 4.0 8 24
- 5.551041 3 4 tcp 1040 ------- 1 0.0 4.0 8 24
r 5.551049 2 3 tcp 1040 ------- 1 0.0 4.0 9 25
+ 5.551049 3 4 tcp 1040 ------- 1 0.0 4.0 9 25
- 5.551049 3 4 tcp 1040 ------- 1 0.0 4.0 9 25
r 5.551058 2 3 tcp 1040 ------- 1 0.0 4.0 10 26
+ 5.551058 3 4 tcp 1040 ------- 1 0.0 4.0 10 26
- 5.551058 3 4 tcp 1040 ------- 1 0.0 4.0 10 26
r 5.551066 2 3 tcp 1040 ------- 1 0.0 4.0 11 27
+ 5.551066 3 4 tcp 1040 ------- 1 0.0 4.0 11 27
- 5.551066 3 4 tcp 1040 ------- 1 0.0 4.0 11 27
r 5.551074 2 3 tcp 1040 ------- 1 0.0 4.0 12 28
+ 5.551074 3 4 tcp 1040 ------- 1 0.0 4.0 12 28
- 5.551074 3 4 tcp 1040 ------- 1 0.0 4.0 12 28
r 5.551083 2 3 tcp 1040 ------- 1 0.0 4.0 13 29
+ 5.551083 3 4 tcp 1040 ------- 1 0.0 4.0 13 29
- 5.551083 3 4 tcp 1040 ------- 1 0.0 4.0 13 29
r 5.651001 5 3 ack 40 ------- 2 5.0 1.0 1 21
+ 5.651001 3 2 ack 40 ------- 2 5.0 1.0 1 21
- 5.651001 3 2 ack 40 ------- 2 5.0 1.0 1 21
r 5.701001 3 2 ack 40 ------- 2 5.0 1.0 1 21
+ 5.701001 2 1 ack 40 ------- 2 5.0 1.0 1 21
- 5.701001 2 1 ack 40 ------- 2 5.0 1.0 1 21
r 6.140026 3 4 tcp 1040 ------- 1 0.0 4.0 6 22
+ 6.140026 4 3 ack 40 ------- 1 4.0 0.0 6 34
- 6.140026 4 3 ack 40 ------- 1 4.0 0.0 6 34
r 6.140035 3 4 tcp 1040 ------- 1 0.0 4.0 7 23
+ 6.140035 4 3 ack 40 ------- 1 4.0 0.0 7 35
- 6.140035 4 3 ack 40 ------- 1 4.0 0.0 7 35
r 6.140043 3 4 tcp 1040 ------- 1 0.0 4.0 8 24
+ 6.140043 4 3 ack 40 ------- 1 4.0 0.0 8 36
- 6.140043 4 3 ack 40 ------- 1 4.0 0.0 8 36
r 6.140051 3 4 tcp 1040 ------- 1 0.0 4.0 9 25
+ 6.140051 4 3 ack 40 ------- 1 4.0 0.0 9 37
- 6.140051 4 3 ack 40 ------- 1 4.0 0.0 9 37
r 6.14006 3 4 tcp 1040 ------- 1 0.0 4.0 10 26
+ 6.14006 4 3 ack 40 ------- 1 4.0 0.0 10 38
- 6.14006 4 3 ack 40 ------- 1 4.0 0.0 10 38
r 6.140068 3 4 tcp 1040 ------- 1 0.0 4.0 11 27
+ 6.140068 4 3 ack 40 ------- 1 4.0 0.0 11 39
- 6.140068 4 3 ack 40 ------- 1 4.0 0.0 11 39
r 6.140076 3 4 tcp 1040 ------- 1 0.0 4.0 12 28
+ 6.140076 4 3 ack 40 ------- 1 4.0 0.0 12 40
- 6.140076 4 3 ack 40 ------- 1 4.0 0.0 12 40
r 6.140085 3 4 tcp 1040 ------- 1 0.0 4.0 13 29
+ 6.140085 4 3 ack 40 ------- 1 4.0 0.0 13 41
- 6.140085 4 3 ack 40 ------- 1 4.0 0.0 13 41
r 6.219014 5 3 ack 40 ------- 2 5.0 1.0 1 30
+ 6.219014 3 2 ack 40 ------- 2 5.0 1.0 1 30
- 6.219014 3 2 ack 40 ------- 2 5.0 1.0 1 30
r 6.219022 5 3 ack 40 ------- 2 5.0 1.0 2 31
+ 6.219022 3 2 ack 40 ------- 2 5.0 1.0 2 31
- 6.219022 3 2 ack 40 ------- 2 5.0 1.0 2 31
r 6.21903 5 3 ack 40 ------- 2 5.0 1.0 3 32
+ 6.21903 3 2 ack 40 ------- 2 5.0 1.0 3 32
- 6.21903 3 2 ack 40 ------- 2 5.0 1.0 3 32
r 6.219038 5 3 ack 40 ------- 2 5.0 1.0 4 33
+ 6.219038 3 2 ack 40 ------- 2 5.0 1.0 4 33
- 6.219038 3 2 ack 40 ------- 2 5.0 1.0 4 33
r 6.269014 3 2 ack 40 ------- 2 5.0 1.0 1 30
+ 6.269014 2 1 ack 40 ------- 2 5.0 1.0 1 30
- 6.269014 2 1 ack 40 ------- 2 5.0 1.0 1 30
r 6.269022 3 2 ack 40 ------- 2 5.0 1.0 2 31
+ 6.269022 2 1 ack 40 ------- 2 5.0 1.0 2 31
- 6.269022 2 1 ack 40 ------- 2 5.0 1.0 2 31
r 6.26903 3 2 ack 40 ------- 2 5.0 1.0 3 32
+ 6.26903 2 1 ack 40 ------- 2 5.0 1.0 3 32
- 6.26903 2 1 ack 40 ------- 2 5.0 1.0 3 32
r 6.269039 3 2 ack 40 ------- 2 5.0 1.0 4 33
+ 6.269039 2 1 ack 40 ------- 2 5.0 1.0 4 33
- 6.269039 2 1 ack 40 ------- 2 5.0 1.0 4 33
r 6.568001 2 1 ack 40 ------- 2 5.0 1.0 1 21
r 6.729026 4 3 ack 40 ------- 1 4.0 0.0 6 34
+ 6.729026 3 2 ack 40 ------- 1 4.0 0.0 6 34
- 6.729026 3 2 ack 40 ------- 1 4.0 0.0 6 34
r 6.729035 4 3 ack 40 ------- 1 4.0 0.0 7 35
+ 6.729035 3 2 ack 40 ------- 1 4.0 0.0 7 35
- 6.729035 3 2 ack 40 ------- 1 4.0 0.0 7 35
r 6.729043 4 3 ack 40 ------- 1 4.0 0.0 8 36
+ 6.729043 3 2 ack 40 ------- 1 4.0 0.0 8 36
- 6.729043 3 2 ack 40 ------- 1 4.0 0.0 8 36
r 6.729051 4 3 ack 40 ------- 1 4.0 0.0 9 37
+ 6.729051 3 2 ack 40 ------- 1 4.0 0.0 9 37
- 6.729051 3 2 ack 40 ------- 1 4.0 0.0 9 37
r 6.72906 4 3 ack 40 ------- 1 4.0 0.0 10 38
+ 6.72906 3 2 ack 40 ------- 1 4.0 0.0 10 38
- 6.72906 3 2 ack 40 ------- 1 4.0 0.0 10 38
r 6.729068 4 3 ack 40 ------- 1 4.0 0.0 11 39
+ 6.729068 3 2 ack 40 ------- 1 4.0 0.0 11 39
- 6.729068 3 2 ack 40 ------- 1 4.0 0.0 11 39
r 6.729076 4 3 ack 40 ------- 1 4.0 0.0 12 40
+ 6.729076 3 2 ack 40 ------- 1 4.0 0.0 12 40
- 6.729076 3 2 ack 40 ------- 1 4.0 0.0 12 40
r 6.729085 4 3 ack 40 ------- 1 4.0 0.0 13 41
+ 6.729085 3 2 ack 40 ------- 1 4.0 0.0 13 41
- 6.729085 3 2 ack 40 ------- 1 4.0 0.0 13 41
r 6.779027 3 2 ack 40 ------- 1 4.0 0.0 6 34
+ 6.779027 2 0 ack 40 ------- 1 4.0 0.0 6 34
- 6.779027 2 0 ack 40 ------- 1 4.0 0.0 6 34
r 6.779035 3 2 ack 40 ------- 1 4.0 0.0 7 35
+ 6.779035 2 0 ack 40 ------- 1 4.0 0.0 7 35
- 6.779035 2 0 ack 40 ------- 1 4.0 0.0 7 35
r 6.779043 3 2 ack 40 ------- 1 4.0 0.0 8 36
+ 6.779043 2 0 ack 40 ------- 1 4.0 0.0 8 36
- 6.779043 2 0 ack 40 ------- 1 4.0 0.0 8 36
r 6.779052 3 2 ack 40 ------- 1 4.0 0.0 9 37
+ 6.779052 2 0 ack 40 ------- 1 4.0 0.0 9 37
- 6.779052 2 0 ack 40 ------- 1 4.0 0.0 9 37
r 6.77906 3 2 ack 40 ------- 1 4.0 0.0 10 38
+ 6.77906 2 0 ack 40 ------- 1 4.0 0.0 10 38
- 6.77906 2 0 ack 40 ------- 1 4.0 0.0 10 38
r 6.779068 3 2 ack 40 ------- 1 4.0 0.0 11 39
+ 6.779068 2 0 ack 40 ------- 1 4.0 0.0 11 39
- 6.779068 2 0 ack 40 ------- 1 4.0 0.0 11 39
r 6.779077 3 2 ack 40 ------- 1 4.0 0.0 12 40
+ 6.779077 2 0 ack 40 ------- 1 4.0 0.0 12 40
- 6.779077 2 0 ack 40 ------- 1 4.0 0.0 12 40
r 6.779085 3 2 ack 40 ------- 1 4.0 0.0 13 41
+ 6.779085 2 0 ack 40 ------- 1 4.0 0.0 13 41
- 6.779085 2 0 ack 40 ------- 1 4.0 0.0 13 41
r 7.136014 2 1 ack 40 ------- 2 5.0 1.0 1 30
r 7.136022 2 1 ack 40 ------- 2 5.0 1.0 2 31
7.13602  1  0  5  0  ack_ 2
7.13602  1  0  5  0  rtt_ 3.568 
+ 7.136022 1 2 tcp 1040 ------- 2 1.0 5.0 5 42
- 7.136022 1 2 tcp 1040 ------- 2 1.0 5.0 5 42
7.13602  1  0  5  0  maxseq_ 5
r 7.136031 2 1 ack 40 ------- 2 5.0 1.0 3 32
7.13603  1  0  5  0  ack_ 3
+ 7.136031 1 2 tcp 1040 ------- 2 1.0 5.0 6 43
- 7.136031 1 2 tcp 1040 ------- 2 1.0 5.0 6 43
7.13603  1  0  5  0  maxseq_ 6
r 7.136039 2 1 ack 40 ------- 2 5.0 1.0 4 33
7.13604  1  0  5  0  ack_ 4
+ 7.136039 1 2 tcp 1040 ------- 2 1.0 5.0 7 44
- 7.136039 1 2 tcp 1040 ------- 2 1.0 5.0 7 44
7.13604  1  0  5  0  maxseq_ 7
r 7.368027 2 0 ack 40 ------- 1 4.0 0.0 6 34
7.36803  0  0  4  0  ack_ 6
7.36803  0  0  4  0  cwnd_ 9.000 
+ 7.368027 0 2 tcp 1040 ------- 1 0.0 4.0 14 45
- 7.368027 0 2 tcp 1040 ------- 1 0.0 4.0 14 45
7.36803  0  0  4  0  maxseq_ 14
+ 7.368027 0 2 tcp 1040 ------- 1 0.0 4.0 15 46
7.36803  0  0  4  0  maxseq_ 15
- 7.368029 0 2 tcp 1040 ------- 1 0.0 4.0 15 46
r 7.368035 2 0 ack 40 ------- 1 4.0 0.0 7 35
7.36804  0  0  4  0  ack_ 7
7.36804  0  0  4  0  cwnd_ 10.000
+ 7.368035 0 2 tcp 1040 ------- 1 0.0 4.0 16 47
- 7.368035 0 2 tcp 1040 ------- 1 0.0 4.0 16 47
7.36804  0  0  4  0  maxseq_ 16
+ 7.368035 0 2 tcp 1040 ------- 1 0.0 4.0 17 48
7.36804  0  0  4  0  maxseq_ 17
- 7.368037 0 2 tcp 1040 ------- 1 0.0 4.0 17 48
r 7.368044 2 0 ack 40 ------- 1 4.0 0.0 8 36
7.36804  0  0  4  0  ack_ 8
7.36804  0  0  4  0  cwnd_ 11.000
+ 7.368044 0 2 tcp 1040 ------- 1 0.0 4.0 18 49
- 7.368044 0 2 tcp 1040 ------- 1 0.0 4.0 18 49
7.36804  0  0  4  0  maxseq_ 18
+ 7.368044 0 2 tcp 1040 ------- 1 0.0 4.0 19 50
7.36804  0  0  4  0  maxseq_ 19
- 7.368046 0 2 tcp 1040 ------- 1 0.0 4.0 19 50
r 7.368052 2 0 ack 40 ------- 1 4.0 0.0 9 37
7.36805  0  0  4  0  ack_ 9
7.36805  0  0  4  0  cwnd_ 12.000
+ 7.368052 0 2 tcp 1040 ------- 1 0.0 4.0 20 51
- 7.368052 0 2 tcp 1040 ------- 1 0.0 4.0 20 51
7.36805  0  0  4  0  maxseq_ 20
+ 7.368052 0 2 tcp 1040 ------- 1 0.0 4.0 21 52
7.36805  0  0  4  0  maxseq_ 21
- 7.368054 0 2 tcp 1040 ------- 1 0.0 4.0 21 52
r 7.36806 2 0 ack 40 ------- 1 4.0 0.0 10 38
7.36806  0  0  4  0  ack_ 10
7.36806  0  0  4  0  cwnd_ 13.000
+ 7.36806 0 2 tcp 1040 ------- 1 0.0 4.0 22 53
- 7.36806 0 2 tcp 1040 ------- 1 0.0 4.0 22 53
7.36806  0  0  4  0  maxseq_ 22
+ 7.36806 0 2 tcp 1040 ------- 1 0.0 4.0 23 54
7.36806  0  0  4  0  maxseq_ 23
- 7.368062 0 2 tcp 1040 ------- 1 0.0 4.0 23 54
r 7.368068 2 0 ack 40 ------- 1 4.0 0.0 11 39
7.36807  0  0  4  0  ack_ 11
7.36807  0  0  4  0  cwnd_ 14.000
+ 7.368068 0 2 tcp 1040 ------- 1 0.0 4.0 24 55
- 7.368068 0 2 tcp 1040 ------- 1 0.0 4.0 24 55
7.36807  0  0  4  0  maxseq_ 24
+ 7.368068 0 2 tcp 1040 ------- 1 0.0 4.0 25 56
7.36807  0  0  4  0  maxseq_ 25
- 7.368071 0 2 tcp 1040 ------- 1 0.0 4.0 25 56
r 7.368077 2 0 ack 40 ------- 1 4.0 0.0 12 40
7.36808  0  0  4  0  ack_ 12
7.36808  0  0  4  0  cwnd_ 15.000
+ 7.368077 0 2 tcp 1040 ------- 1 0.0 4.0 26 57
- 7.368077 0 2 tcp 1040 ------- 1 0.0 4.0 26 57
7.36808  0  0  4  0  maxseq_ 26
+ 7.368077 0 2 tcp 1040 ------- 1 0.0 4.0 27 58
7.36808  0  0  4  0  maxseq_ 27
- 7.368079 0 2 tcp 1040 ------- 1 0.0 4.0 27 58
r 7.368085 2 0 ack 40 ------- 1 4.0 0.0 13 41
7.36809  0  0  4  0  ack_ 13
7.36809  0  0  4  0  cwnd_ 16.000
+ 7.368085 0 2 tcp 1040 ------- 1 0.0 4.0 28 59
- 7.368085 0 2 tcp 1040 ------- 1 0.0 4.0 28 59
7.36809  0  0  4  0  maxseq_ 28
+ 7.368085 0 2 tcp 1040 ------- 1 0.0 4.0 29 60
7.36809  0  0  4  0  maxseq_ 29
- 7.368087 0 2 tcp 1040 ------- 1 0.0 4.0 29 60
r 7.957029 0 2 tcp 1040 ------- 1 0.0 4.0 14 45
+ 7.957029 2 3 tcp 1040 ------- 1 0.0 4.0 14 45
- 7.957029 2 3 tcp 1040 ------- 1 0.0 4.0 14 45
r 7.957031 0 2 tcp 1040 ------- 1 0.0 4.0 15 46
+ 7.957031 2 3 tcp 1040 ------- 1 0.0 4.0 15 46
r 7.957037 0 2 tcp 1040 ------- 1 0.0 4.0 16 47
+ 7.957037 2 3 tcp 1040 ------- 1 0.0 4.0 16 47
- 7.957037 2 3 tcp 1040 ------- 1 0.0 4.0 15 46
r 7.957039 0 2 tcp 1040 ------- 1 0.0 4.0 17 48
+ 7.957039 2 3 tcp 1040 ------- 1 0.0 4.0 17 48
r 7.957046 0 2 tcp 1040 ------- 1 0.0 4.0 18 49
+ 7.957046 2 3 tcp 1040 ------- 1 0.0 4.0 18 49
- 7.957046 2 3 tcp 1040 ------- 1 0.0 4.0 16 47
r 7.957048 0 2 tcp 1040 ------- 1 0.0 4.0 19 50
+ 7.957048 2 3 tcp 1040 ------- 1 0.0 4.0 19 50
r 7.957054 0 2 tcp 1040 ------- 1 0.0 4.0 20 51
+ 7.957054 2 3 tcp 1040 ------- 1 0.0 4.0 20 51
- 7.957054 2 3 tcp 1040 ------- 1 0.0 4.0 17 48
r 7.957056 0 2 tcp 1040 ------- 1 0.0 4.0 21 52
+ 7.957056 2 3 tcp 1040 ------- 1 0.0 4.0 21 52
r 7.957062 0 2 tcp 1040 ------- 1 0.0 4.0 22 53
+ 7.957062 2 3 tcp 1040 ------- 1 0.0 4.0 22 53
- 7.957062 2 3 tcp 1040 ------- 1 0.0 4.0 18 49
r 7.957064 0 2 tcp 1040 ------- 1 0.0 4.0 23 54
+ 7.957064 2 3 tcp 1040 ------- 1 0.0 4.0 23 54
r 7.957071 0 2 tcp 1040 ------- 1 0.0 4.0 24 55
+ 7.957071 2 3 tcp 1040 ------- 1 0.0 4.0 24 55
- 7.957071 2 3 tcp 1040 ------- 1 0.0 4.0 19 50
r 7.957073 0 2 tcp 1040 ------- 1 0.0 4.0 25 56
+ 7.957073 2 3 tcp 1040 ------- 1 0.0 4.0 25 56
r 7.957079 0 2 tcp 1040 ------- 1 0.0 4.0 26 57
+ 7.957079 2 3 tcp 1040 ------- 1 0.0 4.0 26 57
- 7.957079 2 3 tcp 1040 ------- 1 0.0 4.0 20 51
r 7.957081 0 2 tcp 1040 ------- 1 0.0 4.0 27 58
+ 7.957081 2 3 tcp 1040 ------- 1 0.0 4.0 27 58
r 7.957087 0 2 tcp 1040 ------- 1 0.0 4.0 28 59
+ 7.957087 2 3 tcp 1040 ------- 1 0.0 4.0 28 59
- 7.957087 2 3 tcp 1040 ------- 1 0.0 4.0 21 52
r 7.957089 0 2 tcp 1040 ------- 1 0.0 4.0 29 60
+ 7.957089 2 3 tcp 1040 ------- 1 0.0 4.0 29 60
- 7.957096 2 3 tcp 1040 ------- 1 0.0 4.0 22 53
- 7.957104 2 3 tcp 1040 ------- 1 0.0 4.0 23 54
- 7.957112 2 3 tcp 1040 ------- 1 0.0 4.0 24 55
- 7.95712 2 3 tcp 1040 ------- 1 0.0 4.0 25 56
- 7.957129 2 3 tcp 1040 ------- 1 0.0 4.0 26 57
- 7.957137 2 3 tcp 1040 ------- 1 0.0 4.0 27 58
- 7.957145 2 3 tcp 1040 ------- 1 0.0 4.0 28 59
- 7.957154 2 3 tcp 1040 ------- 1 0.0 4.0 29 60
r 8.003024 1 2 tcp 1040 ------- 2 1.0 5.0 5 42
+ 8.003024 2 3 tcp 1040 ------- 2 1.0 5.0 5 42
- 8.003024 2 3 tcp 1040 ------- 2 1.0 5.0 5 42
r 8.003033 1 2 tcp 1040 ------- 2 1.0 5.0 6 43
+ 8.003033 2 3 tcp 1040 ------- 2 1.0 5.0 6 43
- 8.003033 2 3 tcp 1040 ------- 2 1.0 5.0 6 43
r 8.003041 1 2 tcp 1040 ------- 2 1.0 5.0 7 44
+ 8.003041 2 3 tcp 1040 ------- 2 1.0 5.0 7 44
- 8.003041 2 3 tcp 1040 ------- 2 1.0 5.0 7 44
r 8.007037 2 3 tcp 1040 ------- 1 0.0 4.0 14 45
+ 8.007037 3 4 tcp 1040 ------- 1 0.0 4.0 14 45
- 8.007037 3 4 tcp 1040 ------- 1 0.0 4.0 14 45
r 8.007046 2 3 tcp 1040 ------- 1 0.0 4.0 15 46
+ 8.007046 3 4 tcp 1040 ------- 1 0.0 4.0 15 46
- 8.007046 3 4 tcp 1040 ------- 1 0.0 4.0 15 46
r 8.007054 2 3 tcp 1040 ------- 1 0.0 4.0 16 47
+ 8.007054 3 4 tcp 1040 ------- 1 0.0 4.0 16 47
- 8.007054 3 4 tcp 1040 ------- 1 0.0 4.0 16 47
r 8.007062 2 3 tcp 1040 ------- 1 0.0 4.0 17 48
+ 8.007062 3 4 tcp 1040 ------- 1 0.0 4.0 17 48
- 8.007062 3 4 tcp 1040 ------- 1 0.0 4.0 17 48
r 8.007071 2 3 tcp 1040 ------- 1 0.0 4.0 18 49
+ 8.007071 3 4 tcp 1040 ------- 1 0.0 4.0 18 49
- 8.007071 3 4 tcp 1040 ------- 1 0.0 4.0 18 49
r 8.007079 2 3 tcp 1040 ------- 1 0.0 4.0 19 50
+ 8.007079 3 4 tcp 1040 ------- 1 0.0 4.0 19 50
- 8.007079 3 4 tcp 1040 ------- 1 0.0 4.0 19 50
r 8.007087 2 3 tcp 1040 ------- 1 0.0 4.0 20 51
+ 8.007087 3 4 tcp 1040 ------- 1 0.0 4.0 20 51
- 8.007087 3 4 tcp 1040 ------- 1 0.0 4.0 20 51
r 8.007096 2 3 tcp 1040 ------- 1 0.0 4.0 21 52
+ 8.007096 3 4 tcp 1040 ------- 1 0.0 4.0 21 52
- 8.007096 3 4 tcp 1040 ------- 1 0.0 4.0 21 52
r 8.007104 2 3 tcp 1040 ------- 1 0.0 4.0 22 53
+ 8.007104 3 4 tcp 1040 ------- 1 0.0 4.0 22 53
- 8.007104 3 4 tcp 1040 ------- 1 0.0 4.0 22 53
r 8.007112 2 3 tcp 1040 ------- 1 0.0 4.0 23 54
+ 8.007112 3 4 tcp 1040 ------- 1 0.0 4.0 23 54
- 8.007112 3 4 tcp 1040 ------- 1 0.0 4.0 23 54
r 8.00712 2 3 tcp 1040 ------- 1 0.0 4.0 24 55
+ 8.00712 3 4 tcp 1040 ------- 1 0.0 4.0 24 55
- 8.00712 3 4 tcp 1040 ------- 1 0.0 4.0 24 55
r 8.007129 2 3 tcp 1040 ------- 1 0.0 4.0 25 56
+ 8.007129 3 4 tcp 1040 ------- 1 0.0 4.0 25 56
- 8.007129 3 4 tcp 1040 ------- 1 0.0 4.0 25 56
r 8.007137 2 3 tcp 1040 ------- 1 0.0 4.0 26 57
+ 8.007137 3 4 tcp 1040 ------- 1 0.0 4.0 26 57
- 8.007137 3 4 tcp 1040 ------- 1 0.0 4.0 26 57
r 8.007145 2 3 tcp 1040 ------- 1 0.0 4.0 27 58
+ 8.007145 3 4 tcp 1040 ------- 1 0.0 4.0 27 58
- 8.007145 3 4 tcp 1040 ------- 1 0.0 4.0 27 58
r 8.007154 2 3 tcp 1040 ------- 1 0.0 4.0 28 59
+ 8.007154 3 4 tcp 1040 ------- 1 0.0 4.0 28 59
- 8.007154 3 4 tcp 1040 ------- 1 0.0 4.0 28 59
r 8.007162 2 3 tcp 1040 ------- 1 0.0 4.0 29 60
+ 8.007162 3 4 tcp 1040 ------- 1 0.0 4.0 29 60
- 8.007162 3 4 tcp 1040 ------- 1 0.0 4.0 29 60
r 8.053033 2 3 tcp 1040 ------- 2 1.0 5.0 5 42
+ 8.053033 3 5 tcp 1040 ------- 2 1.0 5.0 5 42
- 8.053033 3 5 tcp 1040 ------- 2 1.0 5.0 5 42
r 8.053041 2 3 tcp 1040 ------- 2 1.0 5.0 6 43
+ 8.053041 3 5 tcp 1040 ------- 2 1.0 5.0 6 43
- 8.053041 3 5 tcp 1040 ------- 2 1.0 5.0 6 43
r 8.053049 2 3 tcp 1040 ------- 2 1.0 5.0 7 44
+ 8.053049 3 5 tcp 1040 ------- 2 1.0 5.0 7 44
- 8.053049 3 5 tcp 1040 ------- 2 1.0 5.0 7 44
r 8.596039 3 4 tcp 1040 ------- 1 0.0 4.0 14 45
+ 8.596039 4 3 ack 40 ------- 1 4.0 0.0 14 61
- 8.596039 4 3 ack 40 ------- 1 4.0 0.0 14 61
r 8.596048 3 4 tcp 1040 ------- 1 0.0 4.0 15 46
+ 8.596048 4 3 ack 40 ------- 1 4.0 0.0 15 62
- 8.596048 4 3 ack 40 ------- 1 4.0 0.0 15 62
r 8.596056 3 4 tcp 1040 ------- 1 0.0 4.0 16 47
+ 8.596056 4 3 ack 40 ------- 1 4.0 0.0 16 63
- 8.596056 4 3 ack 40 ------- 1 4.0 0.0 16 63
r 8.596064 3 4 tcp 1040 ------- 1 0.0 4.0 17 48
+ 8.596064 4 3 ack 40 ------- 1 4.0 0.0 17 64
- 8.596064 4 3 ack 40 ------- 1 4.0 0.0 17 64
r 8.596073 3 4 tcp 1040 ------- 1 0.0 4.0 18 49
+ 8.596073 4 3 ack 40 ------- 1 4.0 0.0 18 65
- 8.596073 4 3 ack 40 ------- 1 4.0 0.0 18 65
r 8.596081 3 4 tcp 1040 ------- 1 0.0 4.0 19 50
+ 8.596081 4 3 ack 40 ------- 1 4.0 0.0 19 66
- 8.596081 4 3 ack 40 ------- 1 4.0 0.0 19 66
r 8.596089 3 4 tcp 1040 ------- 1 0.0 4.0 20 51
+ 8.596089 4 3 ack 40 ------- 1 4.0 0.0 20 67
- 8.596089 4 3 ack 40 ------- 1 4.0 0.0 20 67
r 8.596098 3 4 tcp 1040 ------- 1 0.0 4.0 21 52
+ 8.596098 4 3 ack 40 ------- 1 4.0 0.0 21 68
- 8.596098 4 3 ack 40 ------- 1 4.0 0.0 21 68
r 8.596106 3 4 tcp 1040 ------- 1 0.0 4.0 22 53
+ 8.596106 4 3 ack 40 ------- 1 4.0 0.0 22 69
- 8.596106 4 3 ack 40 ------- 1 4.0 0.0 22 69
r 8.596114 3 4 tcp 1040 ------- 1 0.0 4.0 23 54
+ 8.596114 4 3 ack 40 ------- 1 4.0 0.0 23 70
- 8.596114 4 3 ack 40 ------- 1 4.0 0.0 23 70
r 8.596123 3 4 tcp 1040 ------- 1 0.0 4.0 24 55
+ 8.596123 4 3 ack 40 ------- 1 4.0 0.0 24 71
- 8.596123 4 3 ack 40 ------- 1 4.0 0.0 24 71
r 8.596131 3 4 tcp 1040 ------- 1 0.0 4.0 25 56
+ 8.596131 4 3 ack 40 ------- 1 4.0 0.0 25 72
- 8.596131 4 3 ack 40 ------- 1 4.0 0.0 25 72
r 8.596139 3 4 tcp 1040 ------- 1 0.0 4.0 26 57
+ 8.596139 4 3 ack 40 ------- 1 4.0 0.0 26 73
- 8.596139 4 3 ack 40 ------- 1 4.0 0.0 26 73
r 8.596148 3 4 tcp 1040 ------- 1 0.0 4.0 27 58
+ 8.596148 4 3 ack 40 ------- 1 4.0 0.0 27 74
- 8.596148 4 3 ack 40 ------- 1 4.0 0.0 27 74
r 8.596156 3 4 tcp 1040 ------- 1 0.0 4.0 28 59
+ 8.596156 4 3 ack 40 ------- 1 4.0 0.0 28 75
- 8.596156 4 3 ack 40 ------- 1 4.0 0.0 28 75
r 8.596164 3 4 tcp 1040 ------- 1 0.0 4.0 29 60
+ 8.596164 4 3 ack 40 ------- 1 4.0 0.0 29 76
- 8.596164 4 3 ack 40 ------- 1 4.0 0.0 29 76
r 8.920035 3 5 tcp 1040 ------- 2 1.0 5.0 5 42
+ 8.920035 5 3 ack 40 ------- 2 5.0 1.0 5 77
- 8.920035 5 3 ack 40 ------- 2 5.0 1.0 5 77
r 8.920043 3 5 tcp 1040 ------- 2 1.0 5.0 6 43
+ 8.920043 5 3 ack 40 ------- 2 5.0 1.0 6 78
- 8.920043 5 3 ack 40 ------- 2 5.0 1.0 6 78
r 8.920051 3 5 tcp 1040 ------- 2 1.0 5.0 7 44
+ 8.920051 5 3 ack 40 ------- 2 5.0 1.0 7 79
- 8.920051 5 3 ack 40 ------- 2 5.0 1.0 7 79
r 9.185039 4 3 ack 40 ------- 1 4.0 0.0 14 61
+ 9.185039 3 2 ack 40 ------- 1 4.0 0.0 14 61
- 9.185039 3 2 ack 40 ------- 1 4.0 0.0 14 61