0.00000  0  0  4  0  cwnd_ 2.000 
0.00000  0  0  4  0  ssthresh_ 20
0.00000  0  0  4  0  ack_ -1
0.00000  0  0  4  0  maxseq_ -1
0.00000  0  0  4  0  rtt_ 0.000 
0.00000  1  0  5  0  cwnd_ 2.000 
0.00000  1  0  5  0  ssthresh_ 20
0.00000  1  0  5  0  ack_ -1
0.00000  1  0  5  0  maxseq_ -1
0.00000  1  0  5  0  rtt_ 0.000 
0.00000  0  0  4  0  ssthresh_ 1000
0.00000  1  0  5  0  ssthresh_ 1000
+ 0 1 2 tcp 40 ------- 2 1.0 5.0 0 0
- 0 1 2 tcp 40 ------- 2 1.0 5.0 0 0
0.00000  1  0  5  0  maxseq_ 0
+ 0 1 2 tcp 1040 ------- 2 1.0 5.0 1 1
0.00000  1  0  5  0  maxseq_ 1
+ 0 0 2 tcp 40 ------- 1 0.0 4.0 0 2
- 0 0 2 tcp 40 ------- 1 0.0 4.0 0 2
0.00000  0  0  4  0  maxseq_ 0
+ 0 0 2 tcp 1040 ------- 1 0.0 4.0 1 3
0.00000  0  0  4  0  maxseq_ 1
- 0 1 2 tcp 1040 ------- 2 1.0 5.0 1 1
- 0 0 2 tcp 1040 ------- 1 0.0 4.0 1 3
r 0.556 0 2 tcp 40 ------- 1 0.0 4.0 0 2
+ 0.556 2 3 tcp 40 ------- 1 0.0 4.0 0 2
- 0.556 2 3 tcp 40 ------- 1 0.0 4.0 0 2
r 0.556002 0 2 tcp 1040 ------- 1 0.0 4.0 1 3
+ 0.556002 2 3 tcp 1040 ------- 1 0.0 4.0 1 3
- 0.556002 2 3 tcp 1040 ------- 1 0.0 4.0 1 3
r 0.606 2 3 tcp 40 ------- 1 0.0 4.0 0 2
+ 0.606 3 4 tcp 40 ------- 1 0.0 4.0 0 2
- 0.606 3 4 tcp 40 ------- 1 0.0 4.0 0 2
r 0.60601 2 3 tcp 1040 ------- 1 0.0 4.0 1 3
+ 0.60601 3 4 tcp 1040 ------- 1 0.0 4.0 1 3
- 0.60601 3 4 tcp 1040 ------- 1 0.0 4.0 1 3
r 0.834 1 2 tcp 40 ------- 2 1.0 5.0 0 0
+ 0.834 2 3 tcp 40 ------- 2 1.0 5.0 0 0
- 0.834 2 3 tcp 40 ------- 2 1.0 5.0 0 0
r 0.834002 1 2 tcp 1040 ------- 2 1.0 5.0 1 1
+ 0.834002 2 3 tcp 1040 ------- 2 1.0 5.0 1 1
- 0.834002 2 3 tcp 1040 ------- 2 1.0 5.0 1 1
r 0.884 2 3 tcp 40 ------- 2 1.0 5.0 0 0
+ 0.884 3 5 tcp 40 ------- 2 1.0 5.0 0 0
- 0.884 3 5 tcp 40 ------- 2 1.0 5.0 0 0
r 0.88401 2 3 tcp 1040 ------- 2 1.0 5.0 1 1
+ 0.88401 3 5 tcp 1040 ------- 2 1.0 5.0 1 1
- 0.88401 3 5 tcp 1040 ------- 2 1.0 5.0 1 1
r 1.162 3 4 tcp 40 ------- 1 0.0 4.0 0 2
+ 1.162 4 3 ack 40 ------- 1 4.0 0.0 0 4
- 1.162 4 3 ack 40 ------- 1 4.0 0.0 0 4
r 1.162013 3 4 tcp 1040 ------- 1 0.0 4.0 1 3
+ 1.162013 4 3 ack 40 ------- 1 4.0 0.0 1 5
- 1.162013 4 3 ack 40 ------- 1 4.0 0.0 1 5
r 1.718 3 5 tcp 40 ------- 2 1.0 5.0 0 0
+ 1.718 5 3 ack 40 ------- 2 5.0 1.0 0 6
- 1.718 5 3 ack 40 ------- 2 5.0 1.0 0 6
r 1.718001 4 3 ack 40 ------- 1 4.0 0.0 0 4
+ 1.718001 3 2 ack 40 ------- 1 4.0 0.0 0 4
- 1.718001 3 2 ack 40 ------- 1 4.0 0.0 0 4
r 1.718013 3 5 tcp 1040 ------- 2 1.0 5.0 1 1
+ 1.718013 5 3 ack 40 ------- 2 5.0 1.0 1 7
- 1.718013 5 3 ack 40 ------- 2 5.0 1.0 1 7
r 1.718013 4 3 ack 40 ------- 1 4.0 0.0 1 5
+ 1.718013 3 2 ack 40 ------- 1 4.0 0.0 1 5
- 1.718013 3 2 ack 40 ------- 1 4.0 0.0 1 5
r 1.768001 3 2 ack 40 ------- 1 4.0 0.0 0 4
+ 1.768001 2 0 ack 40 ------- 1 4.0 0.0 0 4
- 1.768001 2 0 ack 40 ------- 1 4.0 0.0 0 4
r 1.768013 3 2 ack 40 ------- 1 4.0 0.0 1 5
+ 1.768013 2 0 ack 40 ------- 1 4.0 0.0 1 5
- 1.768013 2 0 ack 40 ------- 1 4.0 0.0 1 5
r 2.324001 2 0 ack 40 ------- 1 4.0 0.0 0 4
2.32400  0  0  4  0  ack_ 0
2.32400  0  0  4  0  rtt_ 2.324 
2.32400  0  0  4  0  cwnd_ 3.000 
+ 2.324001 0 2 tcp 1040 ------- 1 0.0 4.0 2 8
- 2.324001 0 2 tcp 1040 ------- 1 0.0 4.0 2 8
2.32400  0  0  4  0  maxseq_ 2
+ 2.324001 0 2 tcp 1040 ------- 1 0.0 4.0 3 9
2.32400  0  0  4  0  maxseq_ 3
- 2.324003 0 2 tcp 1040 ------- 1 0.0 4.0 3 9
r 2.324013 2 0 ack 40 ------- 1 4.0 0.0 1 5
2.32401  0  0  4  0  ack_ 1
2.32401  0  0  4  0  cwnd_ 4.000 
+ 2.324013 0 2 tcp 1040 ------- 1 0.0 4.0 4 10
- 2.324013 0 2 tcp 1040 ------- 1 0.0 4.0 4 10
2.32401  0  0  4  0  maxseq_ 4
+ 2.324013 0 2 tcp 1040 ------- 1 0.0 4.0 5 11
2.32401  0  0  4  0  maxseq_ 5
- 2.324015 0 2 tcp 1040 ------- 1 0.0 4.0 5 11
r 2.552001 5 3 ack 40 ------- 2 5.0 1.0 0 6
+ 2.552001 3 2 ack 40 ------- 2 5.0 1.0 0 6
- 2.552001 3 2 ack 40 ------- 2 5.0 1.0 0 6
r 2.552013 5 3 ack 40 ------- 2 5.0 1.0 1 7
+ 2.552013 3 2 ack 40 ------- 2 5.0 1.0 1 7
- 2.552013 3 2 ack 40 ------- 2 5.0 1.0 1 7
r 2.602001 3 2 ack 40 ------- 2 5.0 1.0 0 6
+ 2.602001 2 1 ack 40 ------- 2 5.0 1.0 0 6
- 2.602001 2 1 ack 40 ------- 2 5.0 1.0 0 6
r 2.602013 3 2 ack 40 ------- 2 5.0 1.0 1 7
+ 2.602013 2 1 ack 40 ------- 2 5.0 1.0 1 7
- 2.602013 2 1 ack 40 ------- 2 5.0 1.0 1 7
r 2.880003 0 2 tcp 1040 ------- 1 0.0 4.0 2 8
+ 2.880003 2 3 tcp 1040 ------- 1 0.0 4.0 2 8
- 2.880003 2 3 tcp 1040 ------- 1 0.0 4.0 2 8
r 2.880005 0 2 tcp 1040 ------- 1 0.0 4.0 3 9
+ 2.880005 2 3 tcp 1040 ------- 1 0.0 4.0 3 9
- 2.880011 2 3 tcp 1040 ------- 1 0.0 4.0 3 9
r 2.880015 0 2 tcp 1040 ------- 1 0.0 4.0 4 10
+ 2.880015 2 3 tcp 1040 ------- 1 0.0 4.0 4 10
r 2.880017 0 2 tcp 1040 ------- 1 0.0 4.0 5 11
+ 2.880017 2 3 tcp 1040 ------- 1 0.0 4.0 5 11
- 2.88002 2 3 tcp 1040 ------- 1 0.0 4.0 4 10
- 2.880028 2 3 tcp 1040 ------- 1 0.0 4.0 5 11
r 2.930011 2 3 tcp 1040 ------- 1 0.0 4.0 2 8
+ 2.930011 3 4 tcp 1040 ------- 1 0.0 4.0 2 8
- 2.930011 3 4 tcp 1040 ------- 1 0.0 4.0 2 8
r 2.93002 2 3 tcp 1040 ------- 1 0.0 4.0 3 9
+ 2.93002 3 4 tcp 1040 ------- 1 0.0 4.0 3 9
- 2.93002 3 4 tcp 1040 ------- 1 0.0 4.0 3 9
r 2.930028 2 3 tcp 1040 ------- 1 0.0 4.0 4 10
+ 2.930028 3 4 tcp 1040 ------- 1 0.0 4.0 4 10
- 2.930028 3 4 tcp 1040 ------- 1 0.0 4.0 4 10
r 2.930036 2 3 tcp 1040 ------- 1 0.0 4.0 5 11
+ 2.930036 3 4 tcp 1040 ------- 1 0.0 4.0 5 11
- 2.930036 3 4 tcp 1040 ------- 1 0.0 4.0 5 11
3.00000  1  0  5  0  cwnd_ 1.000 
3.00000  1  0  5  0  ssthresh_ 2
+ 3 1 2 tcp 40 ---A--- 2 1.0 5.0 0 12
- 3 1 2 tcp 40 ---A--- 2 1.0 5.0 0 12
r 3.436001 2 1 ack 40 ------- 2 5.0 1.0 0 6
3.43600  1  0  5  0  ack_ 0
3.43600  1  0  5  0  cwnd_ 2.000 
+ 3.436001 1 2 tcp 1040 ------- 2 1.0 5.0 1 13
- 3.436001 1 2 tcp 1040 ------- 2 1.0 5.0 1 13
+ 3.436001 1 2 tcp 1040 ------- 2 1.0 5.0 2 14
3.43600  1  0  5  0  maxseq_ 2
- 3.436003 1 2 tcp 1040 ------- 2 1.0 5.0 2 14
r 3.436013 2 1 ack 40 ------- 2 5.0 1.0 1 7
3.43601  1  0  5  0  ack_ 1
3.43601  1  0  5  0  cwnd_ 3.000 
+ 3.436013 1 2 tcp 1040 ------- 2 1.0 5.0 3 15
- 3.436013 1 2 tcp 1040 ------- 2 1.0 5.0 3 15
3.43601  1  0  5  0  maxseq_ 3
+ 3.436013 1 2 tcp 1040 ------- 2 1.0 5.0 4 16
3.43601  1  0  5  0  maxseq_ 4
- 3.436015 1 2 tcp 1040 ------- 2 1.0 5.0 4 16
r 3.486013 3 4 tcp 1040 ------- 1 0.0 4.0 2 8
+ 3.486013 4 3 ack 40 ------- 1 4.0 0.0 2 17
- 3.486013 4 3 ack 40 ------- 1 4.0 0.0 2 17
r 3.486022 3 4 tcp 1040 ------- 1 0.0 4.0 3 9
+ 3.486022 4 3 ack 40 ------- 1 4.0 0.0 3 18
- 3.486022 4 3 ack 40 ------- 1 4.0 0.0 3 18
r 3.48603 3 4 tcp 1040 ------- 1 0.0 4.0 4 10
+ 3.48603 4 3 ack 40 ------- 1 4.0 0.0 4 19
- 3.48603 4 3 ack 40 ------- 1 4.0 0.0 4 19
r 3.486038 3 4 tcp 1040 ------- 1 0.0 4.0 5 11
+ 3.486038 4 3 ack 40 ------- 1 4.0 0.0 5 20
- 3.486038 4 3 ack 40 ------- 1 4.0 0.0 5 20
r 3.834 1 2 tcp 40 ---A--- 2 1.0 5.0 0 12
+ 3.834 2 3 tcp 40 ---A--- 2 1.0 5.0 0 12
- 3.834 2 3 tcp 40 ---A--- 2 1.0 5.0 0 12
r 3.884 2 3 tcp 40 ---A--- 2 1.0 5.0 0 12
+ 3.884 3 5 tcp 40 ---A--- 2 1.0 5.0 0 12
- 3.884 3 5 tcp 40 ---A--- 2 1.0 5.0 0 12
r 4.042014 4 3 ack 40 ------- 1 4.0 0.0 2 17
+ 4.042014 3 2 ack 40 ------- 1 4.0 0.0 2 17
- 4.042014 3 2 ack 40 ------- 1 4.0 0.0 2 17
r 4.042022 4 3 ack 40 ------- 1 4.0 0.0 3 18
+ 4.042022 3 2 ack 40 ------- 1 4.0 0.0 3 18
- 4.042022 3 2 ack 40 ------- 1 4.0 0.0 3 18
r 4.04203 4 3 ack 40 ------- 1 4.0 0.0 4 19
+ 4.04203 3 2 ack 40 ------- 1 4.0 0.0 4 19
- 4.04203 3 2 ack 40 ------- 1 4.0 0.0 4 19
r 4.042038 4 3 ack 40 ------- 1 4.0 0.0 5 20
+ 4.042038 3 2 ack 40 ------- 1 4.0 0.0 5 20
- 4.042038 3 2 ack 40 ------- 1 4.0 0.0 5 20
r 4.092014 3 2 ack 40 ------- 1 4.0 0.0 2 17
+ 4.092014 2 0 ack 40 ------- 1 4.0 0.0 2 17
- 4.092014 2 0 ack 40 ------- 1 4.0 0.0 2 17
r 4.092022 3 2 ack 40 ------- 1 4.0 0.0 3 18
+ 4.092022 2 0 ack 40 ------- 1 4.0 0.0 3 18
- 4.092022 2 0 ack 40 ------- 1 4.0 0.0 3 18
r 4.09203 3 2 ack 40 ------- 1 4.0 0.0 4 19
+ 4.09203 2 0 ack 40 ------- 1 4.0 0.0 4 19
- 4.09203 2 0 ack 40 ------- 1 4.0 0.0 4 19
r 4.092039 3 2 ack 40 ------- 1 4.0 0.0 5 20
+ 4.092039 2 0 ack 40 ------- 1 4.0 0.0 5 20
- 4.092039 2 0 ack 40 ------- 1 4.0 0.0 5 20
r 4.270003 1 2 tcp 1040 ------- 2 1.0 5.0 1 13
+ 4.270003 2 3 tcp 1040 ------- 2 1.0 5.0 1 13
- 4.270003 2 3 tcp 1040 ------- 2 1.0 5.0 1 13
r 4.270005 1 2 tcp 1040 ------- 2 1.0 5.0 2 14
+ 4.270005 2 3 tcp 1040 ------- 2 1.0 5.0 2 14
- 4.270011 2 3 tcp 1040 ------- 2 1.0 5.0 2 14
r 4.270015 1 2 tcp 1040 ------- 2 1.0 5.0 3 15
+ 4.270015 2 3 tcp 1040 ------- 2 1.0 5.0 3 15
r 4.270017 1 2 tcp 1040 ------- 2 1.0 5.0 4 16
+ 4.270017 2 3 tcp 1040 ------- 2 1.0 5.0 4 16
- 4.27002 2 3 tcp 1040 ------- 2 1.0 5.0 3 15
- 4.270028 2 3 tcp 1040 ------- 2 1.0 5.0 4 16
r 4.320011 2 3 tcp 1040 ------- 2 1.0 5.0 1 13
+ 4.320011 3 5 tcp 1040 ------- 2 1.0 5.0 1 13
- 4.320011 3 5 tcp 1040 ------- 2 1.0 5.0 1 13
r 4.32002 2 3 tcp 1040 ------- 2 1.0 5.0 2 14
+ 4.32002 3 5 tcp 1040 ------- 2 1.0 5.0 2 14
- 4.32002 3 5 tcp 1040 ------- 2 1.0 5.0 2 14
r 4.320028 2 3 tcp 1040 ------- 2 1.0 5.0 3 15
+ 4.320028 3 5 tcp 1040 ------- 2 1.0 5.0 3 15
- 4.320028 3 5 tcp 1040 ------- 2 1.0 5.0 3 15
r 4.320036 2 3 tcp 1040 ------- 2 1.0 5.0 4 16
+ 4.320036 3 5 tcp 1040 ------- 2 1.0 5.0 4 16
- 4.320036 3 5 tcp 1040 ------- 2 1.0 5.0 4 16
r 4.648014 2 0 ack 40 ------- 1 4.0 0.0 2 17
4.64801  0  0  4  0  ack_ 2
4.64801  0  0  4  0  cwnd_ 5.000 
+ 4.648014 0 2 tcp 1040 ------- 1 0.0 4.0 6 21
- 4.648014 0 2 tcp 1040 ------- 1 0.0 4.0 6 21
4.64801  0  0  4  0  maxseq_ 6
+ 4.648014 0 2 tcp 1040 ------- 1 0.0 4.0 7 22
4.64801  0  0  4  0  maxseq_ 7
- 4.648016 0 2 tcp 1040 ------- 1 0.0 4.0 7 22
r 4.648022 2 0 ack 40 ------- 1 4.0 0.0 3 18
4.64802  0  0  4  0  ack_ 3
4.64802  0  0  4  0  cwnd_ 6.000 
+ 4.648022 0 2 tcp 1040 ------- 1 0.0 4.0 8 23
- 4.648022 0 2 tcp 1040 ------- 1 0.0 4.0 8 23
4.64802  0  0  4  0  maxseq_ 8
+ 4.648022 0 2 tcp 1040 ------- 1 0.0 4.0 9 24
4.64802  0  0  4  0  maxseq_ 9
- 4.648024 0 2 tcp 1040 ------- 1 0.0 4.0 9 24
r 4.648031 2 0 ack 40 ------- 1 4.0 0.0 4 19
4.64803  0  0  4  0  ack_ 4
4.64803  0  0  4  0  cwnd_ 7.000 
+ 4.648031 0 2 tcp 1040 ------- 1 0.0 4.0 10 25
- 4.648031 0 2 tcp 1040 ------- 1 0.0 4.0 10 25
4.64803  0  0  4  0  maxseq_ 10
+ 4.648031 0 2 tcp 1040 ------- 1 0.0 4.0 11 26
4.64803  0  0  4  0  maxseq_ 11
- 4.648033 0 2 tcp 1040 ------- 1 0.0 4.0 11 26
r 4.648039 2 0 ack 40 ------- 1 4.0 0.0 5 20
4.64804  0  0  4  0  ack_ 5
4.64804  0  0  4  0  cwnd_ 8.000 
+ 4.648039 0 2 tcp 1040 ------- 1 0.0 4.0 12 27
- 4.648039 0 2 tcp 1040 ------- 1 0.0 4.0 12 27
4.64804  0  0  4  0  maxseq_ 12
+ 4.648039 0 2 tcp 1040 ------- 1 0.0 4.0 13 28
4.64804  0  0  4  0  maxseq_ 13
- 4.648041 0 2 tcp 1040 ------- 1 0.0 4.0 13 28
r 4.718 3 5 tcp 40 ---A--- 2 1.0 5.0 0 12
+ 4.718 5 3 ack 40 ------- 2 5.0 1.0 1 29
- 4.718 5 3 ack 40 ------- 2 5.0 1.0 1 29
r 5.154013 3 5 tcp 1040 ------- 2 1.0 5.0 1 13
+ 5.154013 5 3 ack 40 ------- 2 5.0 1.0 1 30
- 5.154013 5 3 ack 40 ------- 2 5.0 1.0 1 30
r 5.154022 3 5 tcp 1040 ------- 2 1.0 5.0 2 14
+ 5.154022 5 3 ack 40 ------- 2 5.0 1.0 2 31
- 5.154022 5 3 ack 40 ------- 2 5.0 1.0 2 31
r 5.15403 3 5 tcp 1040 ------- 2 1.0 5.0 3 15
+ 5.15403 5 3 ack 40 ------- 2 5.0 1.0 3 32
- 5.15403 5 3 ack 40 ------- 2 5.0 1.0 3 32
r 5.154038 3 5 tcp 1040 ------- 2 1.0 5.0 4 16
+ 5.154038 5 3 ack 40 ------- 2 5.0 1.0 4 33
- 5.154038 5 3 ack 40 ------- 2 5.0 1.0 4 33
r 5.204016 0 2 tcp 1040 ------- 1 0.0 4.0 6 21
+ 5.204016 2 3 tcp 1040 ------- 1 0.0 4.0 6 21
- 5.204016 2 3 tcp 1040 ------- 1 0.0 4.0 6 21
r 5.204018 0 2 tcp 1040 ------- 1 0.0 4.0 7 22
+ 5.204018 2 3 tcp 1040 ------- 1 0.0 4.0 7 22
- 5.204024 2 3 tcp 1040 ------- 1 0.0 4.0 7 22
r 5.204024 0 2 tcp 1040 ------- 1 0.0 4.0 8 23
+ 5.204024 2 3 tcp 1040 ------- 1 0.0 4.0 8 23
r 5.204026 0 2 tcp 1040 ------- 1 0.0 4.0 9 24
+ 5.204026 2 3 tcp 1040 ------- 1 0.0 4.0 9 24
r 5.204033 0 2 tcp 1040 ------- 1 0.0 4.0 10 25
+ 5.204033 2 3 tcp 1040 ------- 1 0.0 4.0 10 25
- 5.204033 2 3 tcp 1040 ------- 1 0.0 4.0 8 23
r 5.204035 0 2 tcp 1040 ------- 1 0.0 4.0 11 26
+ 5.204035 2 3 tcp 1040 ------- 1 0.0 4.0 11 26
- 5.204041 2 3 tcp 1040 ------- 1 0.0 4.0 9 24
r 5.204041 0 2 tcp 1040 ------- 1 0.0 4.0 12 27
+ 5.204041 2 3 tcp 1040 ------- 1 0.0 4.0 12 27
r 5.204043 0 2 tcp 1040 ------- 1 0.0 4.0 13 28
+ 5.204043 2 3 tcp 1040 ------- 1 0.0 4.0 13 28
- 5.204049 2 3 tcp 1040 ------- 1 0.0 4.0 10 25
- 5.204058 2 3 tcp 1040 ------- 1 0.0 4.0 11 26
- 5.204066 2 3 tcp 1040 ------- 1 0.0 4.0 12 27
- 5.204074 2 3 tcp 1040 ------- 1 0.0 4.0 13 28
r 5.254024 2 3 tcp 1040 ------- 1 0.0 4.0 6 21
+ 5.254024 3 4 tcp 1040 ------- 1 0.0 4.0 6 21
- 5.254024 3 4 tcp 1040 ------- 1 0.0 4.0 6 21
r 5.254033 2 3 tcp 1040 ------- 1 0.0 4.0 7 22
+ 5.254033 3 4 tcp 1040 ------- 1 0.0 4.0 7 22
- 5.254033 3 4 tcp 1040 ------- 1 0.0 4.0 7 22
r 5.254041 2 3 tcp 1040 ------- 1 0.0 4.0 8 23
+ 5.254041 3 4 tcp 1040 ------- 1 0.0 4.0 8 23
- 5.254041 3 4 tcp 1040 ------- 1 0.0 4.0 8 23
r 5.254049 2 3 tcp 1040 ------- 1 0.0 4.0 9 24
+ 5.254049 3 4 tcp 1040 ------- 1 0.0 4.0 9 24
- 5.254049 3 4 tcp 1040 ------- 1 0.0 4.0 9 24
r 5.254058 2 3 tcp 1040 ------- 1 0.0 4.0 10 25
+ 5.254058 3 4 tcp 1040 ------- 1 0.0 4.0 10 25
- 5.254058 3 4 tcp 1040 ------- 1 0.0 4.0 10 25
r 5.254066 2 3 tcp 1040 ------- 1 0.0 4.0 11 26
+ 5.254066 3 4 tcp 1040 ------- 1 0.0 4.0 11 26
- 5.254066 3 4 tcp 1040 ------- 1 0.0 4.0 11 26
r 5.254074 2 3 tcp 1040 ------- 1 0.0 4.0 12 27
+ 5.254074 3 4 tcp 1040 ------- 1 0.0 4.0 12 27
- 5.254074 3 4 tcp 1040 ------- 1 0.0 4.0 12 27
r 5.254083 2 3 tcp 1040 ------- 1 0.0 4.0 13 28
+ 5.254083 3 4 tcp 1040 ------- 1 0.0 4.0 13 28
- 5.254083 3 4 tcp 1040 ------- 1 0.0 4.0 13 28
r 5.552001 5 3 ack 40 ------- 2 5.0 1.0 1 29
+ 5.552001 3 2 ack 40 ------- 2 5.0 1.0 1 29
- 5.552001 3 2 ack 40 ------- 2 5.0 1.0 1 29
r 5.602001 3 2 ack 40 ------- 2 5.0 1.0 1 29
+ 5.602001 2 1 ack 40 ------- 2 5.0 1.0 1 29
- 5.602001 2 1 ack 40 ------- 2 5.0 1.0 1 29
r 5.810026 3 4 tcp 1040 ------- 1 0.0 4.0 6 21
+ 5.810026 4 3 ack 40 ------- 1 4.0 0.0 6 34
- 5.810026 4 3 ack 40 ------- 1 4.0 0.0 6 34
r 5.810035 3 4 tcp 1040 ------- 1 0.0 4.0 7 22
+ 5.810035 4 3 ack 40 ------- 1 4.0 0.0 7 35
- 5.810035 4 3 ack 40 ------- 1 4.0 0.0 7 35
r 5.810043 3 4 tcp 1040 ------- 1 0.0 4.0 8 23
+ 5.810043 4 3 ack 40 ------- 1 4.0 0.0 8 36
- 5.810043 4 3 ack 40 ------- 1 4.0 0.0 8 36
r 5.810051 3 4 tcp 1040 ------- 1 0.0 4.0 9 24
+ 5.810051 4 3 ack 40 ------- 1 4.0 0.0 9 37
- 5.810051 4 3 ack 40 ------- 1 4.0 0.0 9 37
r 5.81006 3 4 tcp 1040 ------- 1 0.0 4.0 10 25
+ 5.81006 4 3 ack 40 ------- 1 4.0 0.0 10 38
- 5.81006 4 3 ack 40 ------- 1 4.0 0.0 10 38
r 5.810068 3 4 tcp 1040 ------- 1 0.0 4.0 11 26
+ 5.810068 4 3 ack 40 ------- 1 4.0 0.0 11 39
- 5.810068 4 3 ack 40 ------- 1 4.0 0.0 11 39
r 5.810076 3 4 tcp 1040 ------- 1 0.0 4.0 12 27
+ 5.810076 4 3 ack 40 ------- 1 4.0 0.0 12 40
- 5.810076 4 3 ack 40 ------- 1 4.0 0.0 12 40
r 5.810085 3 4 tcp 1040 ------- 1 0.0 4.0 13 28
+ 5.810085 4 3 ack 40 ------- 1 4.0 0.0 13 41
- 5.810085 4 3 ack 40 ------- 1 4.0 0.0 13 41
r 5.988014 5 3 ack 40 ------- 2 5.0 1.0 1 30
+ 5.988014 3 2 ack 40 ------- 2 5.0 1.0 1 30
- 5.988014 3 2 ack 40 ------- 2 5.0 1.0 1 30
r 5.988022 5 3 ack 40 ------- 2 5.0 1.0 2 31
+ 5.988022 3 2 ack 40 ------- 2 5.0 1.0 2 31
- 5.988022 3 2 ack 40 ------- 2 5.0 1.0 2 31
r 5.98803 5 3 ack 40 ------- 2 5.0 1.0 3 32
+ 5.98803 3 2 ack 40 ------- 2 5.0 1.0 3 32
- 5.98803 3 2 ack 40 ------- 2 5.0 1.0 3 32
r 5.988038 5 3 ack 40 ------- 2 5.0 1.0 4 33
+ 5.988038 3 2 ack 40 ------- 2 5.0 1.0 4 33
- 5.988038 3 2 ack 40 ------- 2 5.0 1.0 4 33
r 6.038014 3 2 ack 40 ------- 2 5.0 1.0 1 30
+ 6.038014 2 1 ack 40 ------- 2 5.0 1.0 1 30
- 6.038014 2 1 ack 40 ------- 2 5.0 1.0 1 30
r 6.038022 3 2 ack 40 ------- 2 5.0 1.0 2 31
+ 6.038022 2 1 ack 40 ------- 2 5.0 1.0 2 31
- 6.038022 2 1 ack 40 ------- 2 5.0 1.0 2 31
r 6.03803 3 2 ack 40 ------- 2 5.0 1.0 3 32
+ 6.03803 2 1 ack 40 ------- 2 5.0 1.0 3 32
- 6.03803 2 1 ack 40 ------- 2 5.0 1.0 3 32
r 6.038039 3 2 ack 40 ------- 2 5.0 1.0 4 33
+ 6.038039 2 1 ack 40 ------- 2 5.0 1.0 4 33
- 6.038039 2 1 ack 40 ------- 2 5.0 1.0 4 33
r 6.366026 4 3 ack 40 ------- 1 4.0 0.0 6 34
+ 6.366026 3 2 ack 40 ------- 1 4.0 0.0 6 34
- 6.366026 3 2 ack 40 ------- 1 4.0 0.0 6 34
r 6.366035 4 3 ack 40 ------- 1 4.0 0.0 7 35
+ 6.366035 3 2 ack 40 ------- 1 4.0 0.0 7 35
- 6.366035 3 2 ack 40 ------- 1 4.0 0.0 7 35
r 6.366043 4 3 ack 40 ------- 1 4.0 0.0 8 36
+ 6.366043 3 2 ack 40 ------- 1 4.0 0.0 8 36
- 6.366043 3 2 ack 40 ------- 1 4.0 0.0 8 36
r 6.366051 4 3 ack 40 ------- 1 4.0 0.0 9 37
+ 6.366051 3 2 ack 40 ------- 1 4.0 0.0 9 37
- 6.366051 3 2 ack 40 ------- 1 4.0 0.0 9 37
r 6.36606 4 3 ack 40 ------- 1 4.0 0.0 10 38
+ 6.36606 3 2 ack 40 ------- 1 4.0 0.0 10 38
- 6.36606 3 2 ack 40 ------- 1 4.0 0.0 10 38
r 6.366068 4 3 ack 40 ------- 1 4.0 0.0 11 39
+ 6.366068 3 2 ack 40 ------- 1 4.0 0.0 11 39
- 6.366068 3 2 ack 40 ------- 1 4.0 0.0 11 39
r 6.366076 4 3 ack 40 ------- 1 4.0 0.0 12 40
+ 6.366076 3 2 ack 40 ------- 1 4.0 0.0 12 40
- 6.366076 3 2 ack 40 ------- 1 4.0 0.0 12 40
r 6.366085 4 3 ack 40 ------- 1 4.0 0.0 13 41
+ 6.366085 3 2 ack 40 ------- 1 4.0 0.0 13 41
- 6.366085 3 2 ack 40 ------- 1 4.0 0.0 13 41
r 6.416027 3 2 ack 40 ------- 1 4.0 0.0 6 34
+ 6.416027 2 0 ack 40 ------- 1 4.0 0.0 6 34
- 6.416027 2 0 ack 40 ------- 1 4.0 0.0 6 34
r 6.416035 3 2 ack 40 ------- 1 4.0 0.0 7 35
+ 6.416035 2 0 ack 40 ------- 1 4.0 0.0 7 35
- 6.416035 2 0 ack 40 ------- 1 4.0 0.0 7 35
r 6.416043 3 2 ack 40 ------- 1 4.0 0.0 8 36
+ 6.416043 2 0 ack 40 ------- 1 4.0 0.0 8 36
- 6.416043 2 0 ack 40 ------- 1 4.0 0.0 8 36
r 6.416052 3 2 ack 40 ------- 1 4.0 0.0 9 37
+ 6.416052 2 0 ack 40 ------- 1 4.0 0.0 9 37
- 6.416052 2 0 ack 40 ------- 1 4.0 0.0 9 37
r 6.41606 3 2 ack 40 ------- 1 4.0 0.0 10 38
+ 6.41606 2 0 ack 40 ------- 1 4.0 0.0 10 38
- 6.41606 2 0 ack 40 ------- 1 4.0 0.0 10 38
r 6.416068 3 2 ack 40 ------- 1 4.0 0.0 11 39
+ 6.416068 2 0 ack 40 ------- 1 4.0 0.0 11 39
- 6.416068 2 0 ack 40 ------- 1 4.0 0.0 11 39
r 6.416077 3 2 ack 40 ------- 1 4.0 0.0 12 40
+ 6.416077 2 0 ack 40 ------- 1 4.0 0.0 12 40
- 6.416077 2 0 ack 40 ------- 1 4.0 0.0 12 40
r 6.416085 3 2 ack 40 ------- 1 4.0 0.0 13 41
+ 6.416085 2 0 ack 40 ------- 1 4.0 0.0 13 41
- 6.416085 2 0 ack 40 ------- 1 4.0 0.0 13 41
r 6.436001 2 1 ack 40 ------- 2 5.0 1.0 1 29
r 6.872014 2 1 ack 40 ------- 2 5.0 1.0 1 30
r 6.872022 2 1 ack 40 ------- 2 5.0 1.0 2 31
6.87202  1  0  5  0  ack_ 2
6.87202  1  0  5  0  rtt_ 3.436 
+ 6.872022 1 2 tcp 1040 ------- 2 1.0 5.0 5 42
- 6.872022 1 2 tcp 1040 ------- 2 1.0 5.0 5 42
6.87202  1  0  5  0  maxseq_ 5
r 6.872031 2 1 ack 40 ------- 2 5.0 1.0 3 32
6.87203  1  0  5  0  ack_ 3
+ 6.872031 1 2 tcp 1040 ------- 2 1.0 5.0 6 43
- 6.872031 1 2 tcp 1040 ------- 2 1.0 5.0 6 43
6.87203  1  0  5  0  maxseq_ 6
r 6.872039 2 1 ack 40 ------- 2 5.0 1.0 4 33
6.87204  1  0  5  0  ack_ 4
+ 6.872039 1 2 tcp 1040 ------- 2 1.0 5.0 7 44
- 6.872039 1 2 tcp 1040 ------- 2 1.0 5.0 7 44
6.87204  1  0  5  0  maxseq_ 7
r 6.972027 2 0 ack 40 ------- 1 4.0 0.0 6 34
6.97203  0  0  4  0  ack_ 6
6.97203  0  0  4  0  cwnd_ 9.000 
+ 6.972027 0 2 tcp 1040 ------- 1 0.0 4.0 14 45
- 6.972027 0 2 tcp 1040 ------- 1 0.0 4.0 14 45
6.97203  0  0  4  0  maxseq_ 14
+ 6.972027 0 2 tcp 1040 ------- 1 0.0 4.0 15 46
6.97203  0  0  4  0  maxseq_ 15
- 6.972029 0 2 tcp 1040 ------- 1 0.0 4.0 15 46
r 6.972035 2 0 ack 40 ------- 1 4.0 0.0 7 35
6.97204  0  0  4  0  ack_ 7
6.97204  0  0  4  0  cwnd_ 10.000
+ 6.972035 0 2 tcp 1040 ------- 1 0.0 4.0 16 47
- 6.972035 0 2 tcp 1040 ------- 1 0.0 4.0 16 47
6.97204  0  0  4  0  maxseq_ 16
+ 6.972035 0 2 tcp 1040 ------- 1 0.0 4.0 17 48
6.97204  0  0  4  0  maxseq_ 17
- 6.972037 0 2 tcp 1040 ------- 1 0.0 4.0 17 48
r 6.972044 2 0 ack 40 ------- 1 4.0 0.0 8 36
6.97204  0  0  4  0  ack_ 8
6.97204  0  0  4  0  cwnd_ 11.000
+ 6.972044 0 2 tcp 1040 ------- 1 0.0 4.0 18 49
- 6.972044 0 2 tcp 1040 ------- 1 0.0 4.0 18 49
6.97204  0  0  4  0  maxseq_ 18
+ 6.972044 0 2 tcp 1040 ------- 1 0.0 4.0 19 50
6.97204  0  0  4  0  maxseq_ 19
- 6.972046 0 2 tcp 1040 ------- 1 0.0 4.0 19 50
r 6.972052 2 0 ack 40 ------- 1 4.0 0.0 9 37
6.97205  0  0  4  0  ack_ 9
6.97205  0  0  4  0  cwnd_ 12.000
+ 6.972052 0 2 tcp 1040 ------- 1 0.0 4.0 20 51
- 6.972052 0 2 tcp 1040 ------- 1 0.0 4.0 20 51
6.97205  0  0  4  0  maxseq_ 20
+ 6.972052 0 2 tcp 1040 ------- 1 0.0 4.0 21 52
6.97205  0  0  4  0  maxseq_ 21
- 6.972054 0 2 tcp 1040 ------- 1 0.0 4.0 21 52
r 6.97206 2 0 ack 40 ------- 1 4.0 0.0 10 38
6.97206  0  0  4  0  ack_ 10
6.97206  0  0  4  0  cwnd_ 13.000
+ 6.97206 0 2 tcp 1040 ------- 1 0.0 4.0 22 53
- 6.97206 0 2 tcp 1040 ------- 1 0.0 4.0 22 53
6.97206  0  0  4  0  maxseq_ 22
+ 6.97206 0 2 tcp 1040 ------- 1 0.0 4.0 23 54
6.97206  0  0  4  0  maxseq_ 23
- 6.972062 0 2 tcp 1040 ------- 1 0.0 4.0 23 54
r 6.972068 2 0 ack 40 ------- 1 4.0 0.0 11 39
6.97207  0  0  4  0  ack_ 11
6.97207  0  0  4  0  cwnd_ 14.000
+ 6.972068 0 2 tcp 1040 ------- 1 0.0 4.0 24 55
- 6.972068 0 2 tcp 1040 ------- 1 0.0 4.0 24 55
6.97207  0  0  4  0  maxseq_ 24
+ 6.972068 0 2 tcp 1040 ------- 1 0.0 4.0 25 56
6.97207  0  0  4  0  maxseq_ 25
- 6.972071 0 2 tcp 1040 ------- 1 0.0 4.0 25 56
r 6.972077 2 0 ack 40 ------- 1 4.0 0.0 12 40
6.97208  0  0  4  0  ack_ 12
6.97208  0  0  4  0  cwnd_ 15.000
+ 6.972077 0 2 tcp 1040 ------- 1 0.0 4.0 26 57
- 6.972077 0 2 tcp 1040 ------- 1 0.0 4.0 26 57
6.97208  0  0  4  0  maxseq_ 26
+ 6.972077 0 2 tcp 1040 ------- 1 0.0 4.0 27 58
6.97208  0  0  4  0  maxseq_ 27
- 6.972079 0 2 tcp 1040 ------- 1 0.0 4.0 27 58
r 6.972085 2 0 ack 40 ------- 1 4.0 0.0 13 41
6.97209  0  0  4  0  ack_ 13
6.97209  0  0  4  0  cwnd_ 16.000
+ 6.972085 0 2 tcp 1040 ------- 1 0.0 4.0 28 59
- 6.972085 0 2 tcp 1040 ------- 1 0.0 4.0 28 59
6.97209  0  0  4  0  maxseq_ 28
+ 6.972085 0 2 tcp 1040 ------- 1 0.0 4.0 29 60
6.97209  0  0  4  0  maxseq_ 29
- 6.972087 0 2 tcp 1040 ------- 1 0.0 4.0 29 60
r 7.528029 0 2 tcp 1040 ------- 1 0.0 4.0 14 45
+ 7.528029 2 3 tcp 1040 ------- 1 0.0 4.0 14 45
- 7.528029 2 3 tcp 1040 ------- 1 0.0 4.0 14 45
r 7.528031 0 2 tcp 1040 ------- 1 0.0 4.0 15 46
+ 7.528031 2 3 tcp 1040 ------- 1 0.0 4.0 15 46
r 7.528037 0 2 tcp 1040 ------- 1 0.0 4.0 16 47
+ 7.528037 2 3 tcp 1040 ------- 1 0.0 4.0 16 47
- 7.528037 2 3 tcp 1040 ------- 1 0.0 4.0 15 46
r 7.528039 0 2 tcp 1040 ------- 1 0.0 4.0 17 48
+ 7.528039 2 3 tcp 1040 ------- 1 0.0 4.0 17 48
r 7.528046 0 2 tcp 1040 ------- 1 0.0 4.0 18 49
+ 7.528046 2 3 tcp 1040 ------- 1 0.0 4.0 18 49
- 7.528046 2 3 tcp 1040 ------- 1 0.0 4.0 16 47
r 7.528048 0 2 tcp 1040 ------- 1 0.0 4.0 19 50
+ 7.528048 2 3 tcp 1040 ------- 1 0.0 4.0 19 50
r 7.528054 0 2 tcp 1040 ------- 1 0.0 4.0 20 51
+ 7.528054 2 3 tcp 1040 ------- 1 0.0 4.0 20 51
- 7.528054 2 3 tcp 1040 ------- 1 0.0 4.0 17 48
r 7.528056 0 2 tcp 1040 ------- 1 0.0 4.0 21 52
+ 7.528056 2 3 tcp 1040 ------- 1 0.0 4.0 21 52
r 7.528062 0 2 tcp 1040 ------- 1 0.0 4.0 22 53
+ 7.528062 2 3 tcp 1040 ------- 1 0.0 4.0 22 53
- 7.528062 2 3 tcp 1040 ------- 1 0.0 4.0 18 49
r 7.528064 0 2 tcp 1040 ------- 1 0.0 4.0 23 54
+ 7.528064 2 3 tcp 1040 ------- 1 0.0 4.0 23 54
r 7.528071 0 2 tcp 1040 ------- 1 0.0 4.0 24 55
+ 7.528071 2 3 tcp 1040 ------- 1 0.0 4.0 24 55
- 7.528071 2 3 tcp 1040 ------- 1 0.0 4.0 19 50
r 7.528073 0 2 tcp 1040 ------- 1 0.0 4.0 25 56
+ 7.528073 2 3 tcp 1040 ------- 1 0.0 4.0 25 56
r 7.528079 0 2 tcp 1040 ------- 1 0.0 4.0 26 57
+ 7.528079 2 3 tcp 1040 ------- 1 0.0 4.0 26 57
- 7.528079 2 3 tcp 1040 ------- 1 0.0 4.0 20 51
r 7.528081 0 2 tcp 1040 ------- 1 0.0 4.0 27 58
+ 7.528081 2 3 tcp 1040 ------- 1 0.0 4.0 27 58
r 7.528087 0 2 tcp 1040 ------- 1 0.0 4.0 28 59
+ 7.528087 2 3 tcp 1040 ------- 1 0.0 4.0 28 59
- 7.528087 2 3 tcp 1040 ------- 1 0.0 4.0 21 52
r 7.528089 0 2 tcp 1040 ------- 1 0.0 4.0 29 60
+ 7.528089 2 3 tcp 1040 ------- 1 0.0 4.0 29 60
- 7.528096 2 3 tcp 1040 ------- 1 0.0 4.0 22 53
- 7.528104 2 3 tcp 1040 ------- 1 0.0 4.0 23 54
- 7.528112 2 3 tcp 1040 ------- 1 0.0 4.0 24 55
- 7.52812 2 3 tcp 1040 ------- 1 0.0 4.0 25 56
- 7.528129 2 3 tcp 1040 ------- 1 0.0 4.0 26 57
- 7.528137 2 3 tcp 1040 ------- 1 0.0 4.0 27 58
- 7.528145 2 3 tcp 1040 ------- 1 0.0 4.0 28 59
- 7.528154 2 3 tcp 1040 ------- 1 0.0 4.0 29 60
r 7.578037 2 3 tcp 1040 ------- 1 0.0 4.0 14 45
+ 7.578037 3 4 tcp 1040 ------- 1 0.0 4.0 14 45
- 7.578037 3 4 tcp 1040 ------- 1 0.0 4.0 14 45
r 7.578046 2 3 tcp 1040 ------- 1 0.0 4.0 15 46
+ 7.578046 3 4 tcp 1040 ------- 1 0.0 4.0 15 46
- 7.578046 3 4 tcp 1040 ------- 1 0.0 4.0 15 46
r 7.578054 2 3 tcp 1040 ------- 1 0.0 4.0 16 47
+ 7.578054 3 4 tcp 1040 ------- 1 0.0 4.0 16 47
- 7.578054 3 4 tcp 1040 ------- 1 0.0 4.0 16 47
r 7.578062 2 3 tcp 1040 ------- 1 0.0 4.0 17 48
+ 7.578062 3 4 tcp 1040 ------- 1 0.0 4.0 17 48
- 7.578062 3 4 tcp 1040 ------- 1 0.0 4.0 17 48
r 7.578071 2 3 tcp 1040 ------- 1 0.0 4.0 18 49
+ 7.578071 3 4 tcp 1040 ------- 1 0.0 4.0 18 49
- 7.578071 3 4 tcp 1040 ------- 1 0.0 4.0 18 49
r 7.578079 2 3 tcp 1040 ------- 1 0.0 4.0 19 50
+ 7.578079 3 4 tcp 1040 ------- 1 0.0 4.0 19 50
- 7.578079 3 4 tcp 1040 ------- 1 0.0 4.0 19 50
r 7.578087 2 3 tcp 1040 ------- 1 0.0 4.0 20 51
+ 7.578087 3 4 tcp 1040 ------- 1 0.0 4.0 20 51
- 7.578087 3 4 tcp 1040 ------- 1 0.0 4.0 20 51
r 7.578096 2 3 tcp 1040 ------- 1 0.0 4.0 21 52
+ 7.578096 3 4 tcp 1040 ------- 1 0.0 4.0 21 52
- 7.578096 3 4 tcp 1040 ------- 1 0.0 4.0 21 52
r 7.578104 2 3 tcp 1040 ------- 1 0.0 4.0 22 53
+ 7.578104 3 4 tcp 1040 ------- 1 0.0 4.0 22 53
- 7.578104 3 4 tcp 1040 ------- 1 0.0 4.0 22 53
r 7.578112 2 3 tcp 1040 ------- 1 0.0 4.0 23 54
+ 7.578112 3 4 tcp 1040 ------- 1 0.0 4.0 23 54
- 7.578112 3 4 tcp 1040 ------- 1 0.0 4.0 23 54
r 7.57812 2 3 tcp 1040 ------- 1 0.0 4.0 24 55
+ 7.57812 3 4 tcp 1040 ------- 1 0.0 4.0 24 55
- 7.57812 3 4 tcp 1040 ------- 1 0.0 4.0 24 55
r 7.578129 2 3 tcp 1040 ------- 1 0.0 4.0 25 56
+ 7.578129 3 4 tcp 1040 ------- 1 0.0 4.0 25 56
- 7.578129 3 4 tcp 1040 ------- 1 0.0 4.0 25 56
r 7.578137 2 3 tcp 1040 ------- 1 0.0 4.0 26 57
+ 7.578137 3 4 tcp 1040 ------- 1 0.0 4.0 26 57
- 7.578137 3 4 tcp 1040 ------- 1 0.0 4.0 26 57
r 7.578145 2 3 tcp 1040 ------- 1 0.0 4.0 27 58
+ 7.578145 3 4 tcp 1040 ------- 1 0.0 4.0 27 58
- 7.578145 3 4 tcp 1040 ------- 1 0.0 4.0 27 58
r 7.578154 2 3 tcp 1040 ------- 1 0.0 4.0 28 59
+ 7.578154 3 4 tcp 1040 ------- 1 0.0 4.0 28 59
- 7.578154 3 4 tcp 1040 ------- 1 0.0 4.0 28 59
r 7.578162 2 3 tcp 1040 ------- 1 0.0 4.0 29 60
+ 7.578162 3 4 tcp 1040 ------- 1 0.0 4.0 29 60
- 7.578162 3 4 tcp 1040 ------- 1 0.0 4.0 29 60
r 7.706024 1 2 tcp 1040 ------- 2 1.0 5.0 5 42
+ 7.706024 2 3 tcp 1040 ------- 2 1.0 5.0 5 42
- 7.706024 2 3 tcp 1040 ------- 2 1.0 5.0 5 42
r 7.706033 1 2 tcp 1040 ------- 2 1.0 5.0 6 43
+ 7.706033 2 3 tcp 1040 ------- 2 1.0 5.0 6 43
- 7.706033 2 3 tcp 1040 ------- 2 1.0 5.0 6 43
r 7.706041 1 2 tcp 1040 ------- 2 1.0 5.0 7 44
+ 7.706041 2 3 tcp 1040 ------- 2 1.0 5.0 7 44
- 7.706041 2 3 tcp 1040 ------- 2 1.0 5.0 7 44
r 7.756033 2 3 tcp 1040 ------- 2 1.0 5.0 5 42
+ 7.756033 3 5 tcp 1040 ------- 2 1.0 5.0 5 42
- 7.756033 3 5 tcp 1040 ------- 2 1.0 5.0 5 42
r 7.756041 2 3 tcp 1040 ------- 2 1.0 5.0 6 43
+ 7.756041 3 5 tcp 1040 ------- 2 1.0 5.0 6 43
- 7.756041 3 5 tcp 1040 ------- 2 1.0 5.0 6 43
r 7.756049 2 3 tcp 1040 ------- 2 1.0 5.0 7 44
+ 7.756049 3 5 tcp 1040 ------- 2 1.0 5.0 7 44
- 7.756049 3 5 tcp 1040 ------- 2 1.0 5.0 7 44
r 8.134039 3 4 tcp 1040 ------- 1 0.0 4.0 14 45
+ 8.134039 4 3 ack 40 ------- 1 4.0 0.0 14 61
- 8.134039 4 3 ack 40 ------- 1 4.0 0.0 14 61
r 8.134048 3 4 tcp 1040 ------- 1 0.0 4.0 15 46
+ 8.134048 4 3 ack 40 ------- 1 4.0 0.0 15 62
- 8.134048 4 3 ack 40 ------- 1 4.0 0.0 15 62
r 8.134056 3 4 tcp 1040 ------- 1 0.0 4.0 16 47
+ 8.134056 4 3 ack 40 ------- 1 4.0 0.0 16 63
- 8.134056 4 3 ack 40 ------- 1 4.0 0.0 16 63
r 8.134064 3 4 tcp 1040 ------- 1 0.0 4.0 17 48
+ 8.134064 4 3 ack 40 ------- 1 4.0 0.0 17 64
- 8.134064 4 3 ack 40 ------- 1 4.0 0.0 17 64
r 8.134073 3 4 tcp 1040 ------- 1 0.0 4.0 18 49
+ 8.134073 4 3 ack 40 ------- 1 4.0 0.0 18 65
- 8.134073 4 3 ack 40 ------- 1 4.0 0.0 18 65
r 8.134081 3 4 tcp 1040 ------- 1 0.0 4.0 19 50
+ 8.134081 4 3 ack 40 ------- 1 4.0 0.0 19 66
- 8.134081 4 3 ack 40 ------- 1 4.0 0.0 19 66
r 8.134089 3 4 tcp 1040 ------- 1 0.0 4.0 20 51
+ 8.134089 4 3 ack 40 ------- 1 4.0 0.0 20 67
- 8.134089 4 3 ack 40 ------- 1 4.0 0.0 20 67
r 8.134098 3 4 tcp 1040 ------- 1 0.0 4.0 21 52
+ 8.134098 4 3 ack 40 ------- 1 4.0 0.0 21 68
- 8.134098 4 3 ack 40 ------- 1 4.0 0.0 21 68
r 8.134106 3 4 tcp 1040 ------- 1 0.0 4.0 22 53
+ 8.134106 4 3 ack 40 ------- 1 4.0 0.0 22 69
- 8.134106 4 3 ack 40 ------- 1 4.0 0.0 22 69
r 8.134114 3 4 tcp 1040 ------- 1 0.0 4.0 23 54
+ 8.134114 4 3 ack 40 ------- 1 4.0 0.0 23 70
- 8.134114 4 3 ack 40 ------- 1 4.0 0.0 23 70
r 8.134123 3 4 tcp 1040 ------- 1 0.0 4.0 24 55
+ 8.134123 4 3 ack 40 ------- 1 4.0 0.0 24 71
- 8.134123 4 3 ack 40 ------- 1 4.0 0.0 24 71
r 8.134131 3 4 tcp 1040 ------- 1 0.0 4.0 25 56
+ 8.134131 4 3 ack 40 ------- 1 4.0 0.0 25 72
- 8.134131 4 3 ack 40 ------- 1 4.0 0.0 25 72
r 8.134139 3 4 tcp 1040 ------- 1 0.0 4.0 26 57
+ 8.134139 4 3 ack 40 ------- 1 4.0 0.0 26 73
- 8.134139 4 3 ack 40 ------- 1 4.0 0.0 26 73
r 8.134148 3 4 tcp 1040 ------- 1 0.0 4.0 27 58
+ 8.134148 4 3 ack 40 ------- 1 4.0 0.0 27 74
- 8.134148 4 3 ack 40 ------- 1 4.0 0.0 27 74
r 8.134156 3 4 tcp 1040 ------- 1 0.0 4.0 28 59
+ 8.134156 4 3 ack 40 ------- 1 4.0 0.0 28 75
- 8.134156 4 3 ack 40 ------- 1 4.0 0.0 28 75
r 8.134164 3 4 tcp 1040 ------- 1 0.0 4.0 29 60
+ 8.134164 4 3 ack 40 ------- 1 4.0 0.0 29 76
- 8.134164 4 3 ack 40 ------- 1 4.0 0.0 29 76
r 8.590035 3 5 tcp 1040 ------- 2 1.0 5.0 5 42
+ 8.590035 5 3 ack 40 ------- 2 5.0 1.0 5 77
- 8.590035 5 3 ack 40 ------- 2 5.0 1.0 5 77
r 8.590043 3 5 tcp 1040 ------- 2 1.0 5.0 6 43
+ 8.590043 5 3 ack 40 ------- 2 5.0 1.0 6 78
- 8.590043 5 3 ack 40 ------- 2 5.0 1.0 6 78
r 8.590051 3 5 tcp 1040 ------- 2 1.0 5.0 7 44
+ 8.590051 5 3 ack 40 ------- 2 5.0 1.0 7 79
- 8.590051 5 3 ack 40 ------- 2 5.0 1.0 7 79
r 8.690039 4 3 ack 40 ------- 1 4.0 0.0 14 61
+ 8.690039 3 2 ack 40 ------- 1 4.0 0.0 14 61
- 8.690039 3 2 ack 40 ------- 1 4.0 0.0 14 61