0.00000  0  0  4  0  cwnd_ 2.000 
0.00000  0  0  4  0  ssthresh_ 20
0.00000  0  0  4  0  ack_ -1
0.00000  0  0  4  0  maxseq_ -1
0.00000  0  0  4  0  rtt_ 0.000 
0.00000  1  0  5  0  cwnd_ 2.000 
0.00000  1  0  5  0  ssthresh_ 20
0.00000  1  0  5  0  ack_ -1
0.00000  1  0  5  0  maxseq_ -1
0.00000  1  0  5  0  rtt_ 0.000 
0.00000  0  0  4  0  ssthresh_ 1000
0.00000  1  0  5  0  ssthresh_ 1000
+ 0 1 2 tcp 40 ------- 2 1.0 5.0 0 0
- 0 1 2 tcp 40 ------- 2 1.0 5.0 0 0
0.00000  1  0  5  0  maxseq_ 0
+ 0 1 2 tcp 1040 ------- 2 1.0 5.0 1 1
0.00000  1  0  5  0  maxseq_ 1
+ 0 0 2 tcp 40 ------- 1 0.0 4.0 0 2
- 0 0 2 tcp 40 ------- 1 0.0 4.0 0 2
0.00000  0  0  4  0  maxseq_ 0
+ 0 0 2 tcp 1040 ------- 1 0.0 4.0 1 3
0.00000  0  0  4  0  maxseq_ 1
- 0 1 2 tcp 1040 ------- 2 1.0 5.0 1 1
- 0 0 2 tcp 1040 ------- 1 0.0 4.0 1 3
r 0.578 0 2 tcp 40 ------- 1 0.0 4.0 0 2
+ 0.578 2 3 tcp 40 ------- 1 0.0 4.0 0 2
- 0.578 2 3 tcp 40 ------- 1 0.0 4.0 0 2
r 0.578002 0 2 tcp 1040 ------- 1 0.0 4.0 1 3
+ 0.578002 2 3 tcp 1040 ------- 1 0.0 4.0 1 3
- 0.578002 2 3 tcp 1040 ------- 1 0.0 4.0 1 3
r 0.628 2 3 tcp 40 ------- 1 0.0 4.0 0 2
+ 0.628 3 4 tcp 40 ------- 1 0.0 4.0 0 2
- 0.628 3 4 tcp 40 ------- 1 0.0 4.0 0 2
r 0.62801 2 3 tcp 1040 ------- 1 0.0 4.0 1 3
+ 0.62801 3 4 tcp 1040 ------- 1 0.0 4.0 1 3
- 0.62801 3 4 tcp 1040 ------- 1 0.0 4.0 1 3
r 0.856 1 2 tcp 40 ------- 2 1.0 5.0 0 0
+ 0.856 2 3 tcp 40 ------- 2 1.0 5.0 0 0
- 0.856 2 3 tcp 40 ------- 2 1.0 5.0 0 0
r 0.856002 1 2 tcp 1040 ------- 2 1.0 5.0 1 1
+ 0.856002 2 3 tcp 1040 ------- 2 1.0 5.0 1 1
- 0.856002 2 3 tcp 1040 ------- 2 1.0 5.0 1 1
r 0.906 2 3 tcp 40 ------- 2 1.0 5.0 0 0
+ 0.906 3 5 tcp 40 ------- 2 1.0 5.0 0 0
- 0.906 3 5 tcp 40 ------- 2 1.0 5.0 0 0
r 0.90601 2 3 tcp 1040 ------- 2 1.0 5.0 1 1
+ 0.90601 3 5 tcp 1040 ------- 2 1.0 5.0 1 1
- 0.90601 3 5 tcp 1040 ------- 2 1.0 5.0 1 1
r 1.206 3 4 tcp 40 ------- 1 0.0 4.0 0 2
+ 1.206 4 3 ack 40 ------- 1 4.0 0.0 0 4
- 1.206 4 3 ack 40 ------- 1 4.0 0.0 0 4
r 1.206013 3 4 tcp 1040 ------- 1 0.0 4.0 1 3
+ 1.206013 4 3 ack 40 ------- 1 4.0 0.0 1 5
- 1.206013 4 3 ack 40 ------- 1 4.0 0.0 1 5
r 1.762 3 5 tcp 40 ------- 2 1.0 5.0 0 0
+ 1.762 5 3 ack 40 ------- 2 5.0 1.0 0 6
- 1.762 5 3 ack 40 ------- 2 5.0 1.0 0 6
r 1.762013 3 5 tcp 1040 ------- 2 1.0 5.0 1 1
+ 1.762013 5 3 ack 40 ------- 2 5.0 1.0 1 7
- 1.762013 5 3 ack 40 ------- 2 5.0 1.0 1 7
r 1.784001 4 3 ack 40 ------- 1 4.0 0.0 0 4
+ 1.784001 3 2 ack 40 ------- 1 4.0 0.0 0 4
- 1.784001 3 2 ack 40 ------- 1 4.0 0.0 0 4
r 1.784013 4 3 ack 40 ------- 1 4.0 0.0 1 5
+ 1.784013 3 2 ack 40 ------- 1 4.0 0.0 1 5
- 1.784013 3 2 ack 40 ------- 1 4.0 0.0 1 5
r 1.834001 3 2 ack 40 ------- 1 4.0 0.0 0 4
+ 1.834001 2 0 ack 40 ------- 1 4.0 0.0 0 4
- 1.834001 2 0 ack 40 ------- 1 4.0 0.0 0 4
r 1.834013 3 2 ack 40 ------- 1 4.0 0.0 1 5
+ 1.834013 2 0 ack 40 ------- 1 4.0 0.0 1 5
- 1.834013 2 0 ack 40 ------- 1 4.0 0.0 1 5
r 2.412001 2 0 ack 40 ------- 1 4.0 0.0 0 4
2.41200  0  0  4  0  ack_ 0
2.41200  0  0  4  0  rtt_ 2.412 
2.41200  0  0  4  0  cwnd_ 3.000 
+ 2.412001 0 2 tcp 1040 ------- 1 0.0 4.0 2 8
- 2.412001 0 2 tcp 1040 ------- 1 0.0 4.0 2 8
2.41200  0  0  4  0  maxseq_ 2
+ 2.412001 0 2 tcp 1040 ------- 1 0.0 4.0 3 9
2.41200  0  0  4  0  maxseq_ 3
- 2.412003 0 2 tcp 1040 ------- 1 0.0 4.0 3 9
r 2.412013 2 0 ack 40 ------- 1 4.0 0.0 1 5
2.41201  0  0  4  0  ack_ 1
2.41201  0  0  4  0  cwnd_ 4.000 
+ 2.412013 0 2 tcp 1040 ------- 1 0.0 4.0 4 10
- 2.412013 0 2 tcp 1040 ------- 1 0.0 4.0 4 10
2.41201  0  0  4  0  maxseq_ 4
+ 2.412013 0 2 tcp 1040 ------- 1 0.0 4.0 5 11
2.41201  0  0  4  0  maxseq_ 5
- 2.412015 0 2 tcp 1040 ------- 1 0.0 4.0 5 11
r 2.618001 5 3 ack 40 ------- 2 5.0 1.0 0 6
+ 2.618001 3 2 ack 40 ------- 2 5.0 1.0 0 6
- 2.618001 3 2 ack 40 ------- 2 5.0 1.0 0 6
r 2.618013 5 3 ack 40 ------- 2 5.0 1.0 1 7
+ 2.618013 3 2 ack 40 ------- 2 5.0 1.0 1 7
- 2.618013 3 2 ack 40 ------- 2 5.0 1.0 1 7
r 2.668001 3 2 ack 40 ------- 2 5.0 1.0 0 6
+ 2.668001 2 1 ack 40 ------- 2 5.0 1.0 0 6
- 2.668001 2 1 ack 40 ------- 2 5.0 1.0 0 6
r 2.668013 3 2 ack 40 ------- 2 5.0 1.0 1 7
+ 2.668013 2 1 ack 40 ------- 2 5.0 1.0 1 7
- 2.668013 2 1 ack 40 ------- 2 5.0 1.0 1 7
r 2.990003 0 2 tcp 1040 ------- 1 0.0 4.0 2 8
+ 2.990003 2 3 tcp 1040 ------- 1 0.0 4.0 2 8
- 2.990003 2 3 tcp 1040 ------- 1 0.0 4.0 2 8
r 2.990005 0 2 tcp 1040 ------- 1 0.0 4.0 3 9
+ 2.990005 2 3 tcp 1040 ------- 1 0.0 4.0 3 9
- 2.990011 2 3 tcp 1040 ------- 1 0.0 4.0 3 9
r 2.990015 0 2 tcp 1040 ------- 1 0.0 4.0 4 10
+ 2.990015 2 3 tcp 1040 ------- 1 0.0 4.0 4 10
r 2.990017 0 2 tcp 1040 ------- 1 0.0 4.0 5 11
+ 2.990017 2 3 tcp 1040 ------- 1 0.0 4.0 5 11
- 2.99002 2 3 tcp 1040 ------- 1 0.0 4.0 4 10
- 2.990028 2 3 tcp 1040 ------- 1 0.0 4.0 5 11
3.00000  1  0  5  0  cwnd_ 1.000 
3.00000  1  0  5  0  ssthresh_ 2
+ 3 1 2 tcp 40 ---A--- 2 1.0 5.0 0 12
- 3 1 2 tcp 40 ---A--- 2 1.0 5.0 0 12
r 3.040011 2 3 tcp 1040 ------- 1 0.0 4.0 2 8
+ 3.040011 3 4 tcp 1040 ------- 1 0.0 4.0 2 8
- 3.040011 3 4 tcp 1040 ------- 1 0.0 4.0 2 8
r 3.04002 2 3 tcp 1040 ------- 1 0.0 4.0 3 9
+ 3.04002 3 4 tcp 1040 ------- 1 0.0 4.0 3 9
- 3.04002 3 4 tcp 1040 ------- 1 0.0 4.0 3 9
r 3.040028 2 3 tcp 1040 ------- 1 0.0 4.0 4 10
+ 3.040028 3 4 tcp 1040 ------- 1 0.0 4.0 4 10
- 3.040028 3 4 tcp 1040 ------- 1 0.0 4.0 4 10
r 3.040036 2 3 tcp 1040 ------- 1 0.0 4.0 5 11
+ 3.040036 3 4 tcp 1040 ------- 1 0.0 4.0 5 11
- 3.040036 3 4 tcp 1040 ------- 1 0.0 4.0 5 11
r 3.524001 2 1 ack 40 ------- 2 5.0 1.0 0 6
3.52400  1  0  5  0  ack_ 0
3.52400  1  0  5  0  cwnd_ 2.000 
+ 3.524001 1 2 tcp 1040 ------- 2 1.0 5.0 1 13
- 3.524001 1 2 tcp 1040 ------- 2 1.0 5.0 1 13
+ 3.524001 1 2 tcp 1040 ------- 2 1.0 5.0 2 14
3.52400  1  0  5  0  maxseq_ 2
- 3.524003 1 2 tcp 1040 ------- 2 1.0 5.0 2 14
r 3.524013 2 1 ack 40 ------- 2 5.0 1.0 1 7
3.52401  1  0  5  0  ack_ 1
3.52401  1  0  5  0  cwnd_ 3.000 
+ 3.524013 1 2 tcp 1040 ------- 2 1.0 5.0 3 15
- 3.524013 1 2 tcp 1040 ------- 2 1.0 5.0 3 15
3.52401  1  0  5  0  maxseq_ 3
+ 3.524013 1 2 tcp 1040 ------- 2 1.0 5.0 4 16
3.52401  1  0  5  0  maxseq_ 4
- 3.524015 1 2 tcp 1040 ------- 2 1.0 5.0 4 16
r 3.618013 3 4 tcp 1040 ------- 1 0.0 4.0 2 8
+ 3.618013 4 3 ack 40 ------- 1 4.0 0.0 2 17
- 3.618013 4 3 ack 40 ------- 1 4.0 0.0 2 17
r 3.618022 3 4 tcp 1040 ------- 1 0.0 4.0 3 9
+ 3.618022 4 3 ack 40 ------- 1 4.0 0.0 3 18
- 3.618022 4 3 ack 40 ------- 1 4.0 0.0 3 18
r 3.61803 3 4 tcp 1040 ------- 1 0.0 4.0 4 10
+ 3.61803 4 3 ack 40 ------- 1 4.0 0.0 4 19
- 3.61803 4 3 ack 40 ------- 1 4.0 0.0 4 19
r 3.618038 3 4 tcp 1040 ------- 1 0.0 4.0 5 11
+ 3.618038 4 3 ack 40 ------- 1 4.0 0.0 5 20
- 3.618038 4 3 ack 40 ------- 1 4.0 0.0 5 20
r 3.856 1 2 tcp 40 ---A--- 2 1.0 5.0 0 12
+ 3.856 2 3 tcp 40 ---A--- 2 1.0 5.0 0 12
- 3.856 2 3 tcp 40 ---A--- 2 1.0 5.0 0 12
r 3.906 2 3 tcp 40 ---A--- 2 1.0 5.0 0 12
+ 3.906 3 5 tcp 40 ---A--- 2 1.0 5.0 0 12
- 3.906 3 5 tcp 40 ---A--- 2 1.0 5.0 0 12
r 4.196014 4 3 ack 40 ------- 1 4.0 0.0 2 17
+ 4.196014 3 2 ack 40 ------- 1 4.0 0.0 2 17
- 4.196014 3 2 ack 40 ------- 1 4.0 0.0 2 17
r 4.196022 4 3 ack 40 ------- 1 4.0 0.0 3 18
+ 4.196022 3 2 ack 40 ------- 1 4.0 0.0 3 18
- 4.196022 3 2 ack 40 ------- 1 4.0 0.0 3 18
r 4.19603 4 3 ack 40 ------- 1 4.0 0.0 4 19
+ 4.19603 3 2 ack 40 ------- 1 4.0 0.0 4 19
- 4.19603 3 2 ack 40 ------- 1 4.0 0.0 4 19
r 4.196038 4 3 ack 40 ------- 1 4.0 0.0 5 20
+ 4.196038 3 2 ack 40 ------- 1 4.0 0.0 5 20
- 4.196038 3 2 ack 40 ------- 1 4.0 0.0 5 20
r 4.246014 3 2 ack 40 ------- 1 4.0 0.0 2 17
+ 4.246014 2 0 ack 40 ------- 1 4.0 0.0 2 17
- 4.246014 2 0 ack 40 ------- 1 4.0 0.0 2 17
r 4.246022 3 2 ack 40 ------- 1 4.0 0.0 3 18
+ 4.246022 2 0 ack 40 ------- 1 4.0 0.0 3 18
- 4.246022 2 0 ack 40 ------- 1 4.0 0.0 3 18
r 4.24603 3 2 ack 40 ------- 1 4.0 0.0 4 19
+ 4.24603 2 0 ack 40 ------- 1 4.0 0.0 4 19
- 4.24603 2 0 ack 40 ------- 1 4.0 0.0 4 19
r 4.246039 3 2 ack 40 ------- 1 4.0 0.0 5 20
+ 4.246039 2 0 ack 40 ------- 1 4.0 0.0 5 20
- 4.246039 2 0 ack 40 ------- 1 4.0 0.0 5 20
r 4.380003 1 2 tcp 1040 ------- 2 1.0 5.0 1 13
+ 4.380003 2 3 tcp 1040 ------- 2 1.0 5.0 1 13
- 4.380003 2 3 tcp 1040 ------- 2 1.0 5.0 1 13
r 4.380005 1 2 tcp 1040 ------- 2 1.0 5.0 2 14
+ 4.380005 2 3 tcp 1040 ------- 2 1.0 5.0 2 14
- 4.380011 2 3 tcp 1040 ------- 2 1.0 5.0 2 14
r 4.380015 1 2 tcp 1040 ------- 2 1.0 5.0 3 15
+ 4.380015 2 3 tcp 1040 ------- 2 1.0 5.0 3 15
r 4.380017 1 2 tcp 1040 ------- 2 1.0 5.0 4 16
+ 4.380017 2 3 tcp 1040 ------- 2 1.0 5.0 4 16
- 4.38002 2 3 tcp 1040 ------- 2 1.0 5.0 3 15
- 4.380028 2 3 tcp 1040 ------- 2 1.0 5.0 4 16
r 4.430011 2 3 tcp 1040 ------- 2 1.0 5.0 1 13
+ 4.430011 3 5 tcp 1040 ------- 2 1.0 5.0 1 13
- 4.430011 3 5 tcp 1040 ------- 2 1.0 5.0 1 13
r 4.43002 2 3 tcp 1040 ------- 2 1.0 5.0 2 14
+ 4.43002 3 5 tcp 1040 ------- 2 1.0 5.0 2 14
- 4.43002 3 5 tcp 1040 ------- 2 1.0 5.0 2 14
r 4.430028 2 3 tcp 1040 ------- 2 1.0 5.0 3 15
+ 4.430028 3 5 tcp 1040 ------- 2 1.0 5.0 3 15
- 4.430028 3 5 tcp 1040 ------- 2 1.0 5.0 3 15
r 4.430036 2 3 tcp 1040 ------- 2 1.0 5.0 4 16
+ 4.430036 3 5 tcp 1040 ------- 2 1.0 5.0 4 16
- 4.430036 3 5 tcp 1040 ------- 2 1.0 5.0 4 16
r 4.762 3 5 tcp 40 ---A--- 2 1.0 5.0 0 12
+ 4.762 5 3 ack 40 ------- 2 5.0 1.0 1 21
- 4.762 5 3 ack 40 ------- 2 5.0 1.0 1 21
r 4.824014 2 0 ack 40 ------- 1 4.0 0.0 2 17
4.82401  0  0  4  0  ack_ 2
4.82401  0  0  4  0  cwnd_ 5.000 
+ 4.824014 0 2 tcp 1040 ------- 1 0.0 4.0 6 22
- 4.824014 0 2 tcp 1040 ------- 1 0.0 4.0 6 22
4.82401  0  0  4  0  maxseq_ 6
+ 4.824014 0 2 tcp 1040 ------- 1 0.0 4.0 7 23
4.82401  0  0  4  0  maxseq_ 7
- 4.824016 0 2 tcp 1040 ------- 1 0.0 4.0 7 23
r 4.824022 2 0 ack 40 ------- 1 4.0 0.0 3 18
4.82402  0  0  4  0  ack_ 3
4.82402  0  0  4  0  cwnd_ 6.000 
+ 4.824022 0 2 tcp 1040 ------- 1 0.0 4.0 8 24
- 4.824022 0 2 tcp 1040 ------- 1 0.0 4.0 8 24
4.82402  0  0  4  0  maxseq_ 8
+ 4.824022 0 2 tcp 1040 ------- 1 0.0 4.0 9 25
4.82402  0  0  4  0  maxseq_ 9
- 4.824024 0 2 tcp 1040 ------- 1 0.0 4.0 9 25
r 4.824031 2 0 ack 40 ------- 1 4.0 0.0 4 19
4.82403  0  0  4  0  ack_ 4
4.82403  0  0  4  0  cwnd_ 7.000 
+ 4.824031 0 2 tcp 1040 ------- 1 0.0 4.0 10 26
- 4.824031 0 2 tcp 1040 ------- 1 0.0 4.0 10 26
4.82403  0  0  4  0  maxseq_ 10
+ 4.824031 0 2 tcp 1040 ------- 1 0.0 4.0 11 27
4.82403  0  0  4  0  maxseq_ 11
- 4.824033 0 2 tcp 1040 ------- 1 0.0 4.0 11 27
r 4.824039 2 0 ack 40 ------- 1 4.0 0.0 5 20
4.82404  0  0  4  0  ack_ 5
4.82404  0  0  4  0  cwnd_ 8.000 
+ 4.824039 0 2 tcp 1040 ------- 1 0.0 4.0 12 28
- 4.824039 0 2 tcp 1040 ------- 1 0.0 4.0 12 28
4.82404  0  0  4  0  maxseq_ 12
+ 4.824039 0 2 tcp 1040 ------- 1 0.0 4.0 13 29
4.82404  0  0  4  0  maxseq_ 13
- 4.824041 0 2 tcp 1040 ------- 1 0.0 4.0 13 29
r 5.286013 3 5 tcp 1040 ------- 2 1.0 5.0 1 13
+ 5.286013 5 3 ack 40 ------- 2 5.0 1.0 1 30
- 5.286013 5 3 ack 40 ------- 2 5.0 1.0 1 30
r 5.286022 3 5 tcp 1040 ------- 2 1.0 5.0 2 14
+ 5.286022 5 3 ack 40 ------- 2 5.0 1.0 2 31
- 5.286022 5 3 ack 40 ------- 2 5.0 1.0 2 31
r 5.28603 3 5 tcp 1040 ------- 2 1.0 5.0 3 15
+ 5.28603 5 3 ack 40 ------- 2 5.0 1.0 3 32
- 5.28603 5 3 ack 40 ------- 2 5.0 1.0 3 32
r 5.286038 3 5 tcp 1040 ------- 2 1.0 5.0 4 16
+ 5.286038 5 3 ack 40 ------- 2 5.0 1.0 4 33
- 5.286038 5 3 ack 40 ------- 2 5.0 1.0 4 33
r 5.402016 0 2 tcp 1040 ------- 1 0.0 4.0 6 22
+ 5.402016 2 3 tcp 1040 ------- 1 0.0 4.0 6 22
- 5.402016 2 3 tcp 1040 ------- 1 0.0 4.0 6 22
r 5.402018 0 2 tcp 1040 ------- 1 0.0 4.0 7 23
+ 5.402018 2 3 tcp 1040 ------- 1 0.0 4.0 7 23
r 5.402024 0 2 tcp 1040 ------- 1 0.0 4.0 8 24
+ 5.402024 2 3 tcp 1040 ------- 1 0.0 4.0 8 24
- 5.402024 2 3 tcp 1040 ------- 1 0.0 4.0 7 23
r 5.402026 0 2 tcp 1040 ------- 1 0.0 4.0 9 25
+ 5.402026 2 3 tcp 1040 ------- 1 0.0 4.0 9 25
r 5.402033 0 2 tcp 1040 ------- 1 0.0 4.0 10 26
+ 5.402033 2 3 tcp 1040 ------- 1 0.0 4.0 10 26
- 5.402033 2 3 tcp 1040 ------- 1 0.0 4.0 8 24
r 5.402035 0 2 tcp 1040 ------- 1 0.0 4.0 11 27
+ 5.402035 2 3 tcp 1040 ------- 1 0.0 4.0 11 27
r 5.402041 0 2 tcp 1040 ------- 1 0.0 4.0 12 28
+ 5.402041 2 3 tcp 1040 ------- 1 0.0 4.0 12 28
- 5.402041 2 3 tcp 1040 ------- 1 0.0 4.0 9 25
r 5.402043 0 2 tcp 1040 ------- 1 0.0 4.0 13 29
+ 5.402043 2 3 tcp 1040 ------- 1 0.0 4.0 13 29
- 5.402049 2 3 tcp 1040 ------- 1 0.0 4.0 10 26
- 5.402058 2 3 tcp 1040 ------- 1 0.0 4.0 11 27
- 5.402066 2 3 tcp 1040 ------- 1 0.0 4.0 12 28
- 5.402074 2 3 tcp 1040 ------- 1 0.0 4.0 13 29
r 5.452024 2 3 tcp 1040 ------- 1 0.0 4.0 6 22
+ 5.452024 3 4 tcp 1040 ------- 1 0.0 4.0 6 22
- 5.452024 3 4 tcp 1040 ------- 1 0.0 4.0 6 22
r 5.452033 2 3 tcp 1040 ------- 1 0.0 4.0 7 23
+ 5.452033 3 4 tcp 1040 ------- 1 0.0 4.0 7 23
- 5.452033 3 4 tcp 1040 ------- 1 0.0 4.0 7 23
r 5.452041 2 3 tcp 1040 ------- 1 0.0 4.0 8 24
+ 5.452041 3 4 tcp 1040 ------- 1 0.0 4.0 8 24
- 5.452041 3 4 tcp 1040 ------- 1 0.0 4.0 8 24
r 5.452049 2 3 tcp 1040 ------- 1 0.0 4.0 9 25
+ 5.452049 3 4 tcp 1040 ------- 1 0.0 4.0 9 25
- 5.452049 3 4 tcp 1040 ------- 1 0.0 4.0 9 25
r 5.452058 2 3 tcp 1040 ------- 1 0.0 4.0 10 26
+ 5.452058 3 4 tcp 1040 ------- 1 0.0 4.0 10 26
- 5.452058 3 4 tcp 1040 ------- 1 0.0 4.0 10 26
r 5.452066 2 3 tcp 1040 ------- 1 0.0 4.0 11 27
+ 5.452066 3 4 tcp 1040 ------- 1 0.0 4.0 11 27
- 5.452066 3 4 tcp 1040 ------- 1 0.0 4.0 11 27
r 5.452074 2 3 tcp 1040 ------- 1 0.0 4.0 12 28
+ 5.452074 3 4 tcp 1040 ------- 1 0.0 4.0 12 28
- 5.452074 3 4 tcp 1040 ------- 1 0.0 4.0 12 28
r 5.452083 2 3 tcp 1040 ------- 1 0.0 4.0 13 29
+ 5.452083 3 4 tcp 1040 ------- 1 0.0 4.0 13 29
- 5.452083 3 4 tcp 1040 ------- 1 0.0 4.0 13 29
r 5.618001 5 3 ack 40 ------- 2 5.0 1.0 1 21
+ 5.618001 3 2 ack 40 ------- 2 5.0 1.0 1 21
- 5.618001 3 2 ack 40 ------- 2 5.0 1.0 1 21
r 5.668001 3 2 ack 40 ------- 2 5.0 1.0 1 21
+ 5.668001 2 1 ack 40 ------- 2 5.0 1.0 1 21
- 5.668001 2 1 ack 40 ------- 2 5.0 1.0 1 21
r 6.030026 3 4 tcp 1040 ------- 1 0.0 4.0 6 22
+ 6.030026 4 3 ack 40 ------- 1 4.0 0.0 6 34
- 6.030026 4 3 ack 40 ------- 1 4.0 0.0 6 34
r 6.030035 3 4 tcp 1040 ------- 1 0.0 4.0 7 23
+ 6.030035 4 3 ack 40 ------- 1 4.0 0.0 7 35
- 6.030035 4 3 ack 40 ------- 1 4.0 0.0 7 35
r 6.030043 3 4 tcp 1040 ------- 1 0.0 4.0 8 24
+ 6.030043 4 3 ack 40 ------- 1 4.0 0.0 8 36
- 6.030043 4 3 ack 40 ------- 1 4.0 0.0 8 36
r 6.030051 3 4 tcp 1040 ------- 1 0.0 4.0 9 25
+ 6.030051 4 3 ack 40 ------- 1 4.0 0.0 9 37
- 6.030051 4 3 ack 40 ------- 1 4.0 0.0 9 37
r 6.03006 3 4 tcp 1040 ------- 1 0.0 4.0 10 26
+ 6.03006 4 3 ack 40 ------- 1 4.0 0.0 10 38
- 6.03006 4 3 ack 40 ------- 1 4.0 0.0 10 38
r 6.030068 3 4 tcp 1040 ------- 1 0.0 4.0 11 27
+ 6.030068 4 3 ack 40 ------- 1 4.0 0.0 11 39
- 6.030068 4 3 ack 40 ------- 1 4.0 0.0 11 39
r 6.030076 3 4 tcp 1040 ------- 1 0.0 4.0 12 28
+ 6.030076 4 3 ack 40 ------- 1 4.0 0.0 12 40
- 6.030076 4 3 ack 40 ------- 1 4.0 0.0 12 40
r 6.030085 3 4 tcp 1040 ------- 1 0.0 4.0 13 29
+ 6.030085 4 3 ack 40 ------- 1 4.0 0.0 13 41
- 6.030085 4 3 ack 40 ------- 1 4.0 0.0 13 41
r 6.142014 5 3 ack 40 ------- 2 5.0 1.0 1 30
+ 6.142014 3 2 ack 40 ------- 2 5.0 1.0 1 30
- 6.142014 3 2 ack 40 ------- 2 5.0 1.0 1 30
r 6.142022 5 3 ack 40 ------- 2 5.0 1.0 2 31
+ 6.142022 3 2 ack 40 ------- 2 5.0 1.0 2 31
- 6.142022 3 2 ack 40 ------- 2 5.0 1.0 2 31
r 6.14203 5 3 ack 40 ------- 2 5.0 1.0 3 32
+ 6.14203 3 2 ack 40 ------- 2 5.0 1.0 3 32
- 6.14203 3 2 ack 40 ------- 2 5.0 1.0 3 32
r 6.142038 5 3 ack 40 ------- 2 5.0 1.0 4 33
+ 6.142038 3 2 ack 40 ------- 2 5.0 1.0 4 33
- 6.142038 3 2 ack 40 ------- 2 5.0 1.0 4 33
r 6.192014 3 2 ack 40 ------- 2 5.0 1.0 1 30
+ 6.192014 2 1 ack 40 ------- 2 5.0 1.0 1 30
- 6.192014 2 1 ack 40 ------- 2 5.0 1.0 1 30
r 6.192022 3 2 ack 40 ------- 2 5.0 1.0 2 31
+ 6.192022 2 1 ack 40 ------- 2 5.0 1.0 2 31
- 6.192022 2 1 ack 40 ------- 2 5.0 1.0 2 31
r 6.19203 3 2 ack 40 ------- 2 5.0 1.0 3 32
+ 6.19203 2 1 ack 40 ------- 2 5.0 1.0 3 32
- 6.19203 2 1 ack 40 ------- 2 5.0 1.0 3 32
r 6.192039 3 2 ack 40 ------- 2 5.0 1.0 4 33
+ 6.192039 2 1 ack 40 ------- 2 5.0 1.0 4 33
- 6.192039 2 1 ack 40 ------- 2 5.0 1.0 4 33
r 6.524001 2 1 ack 40 ------- 2 5.0 1.0 1 21
r 6.608026 4 3 ack 40 ------- 1 4.0 0.0 6 34
+ 6.608026 3 2 ack 40 ------- 1 4.0 0.0 6 34
- 6.608026 3 2 ack 40 ------- 1 4.0 0.0 6 34
r 6.608035 4 3 ack 40 ------- 1 4.0 0.0 7 35
+ 6.608035 3 2 ack 40 ------- 1 4.0 0.0 7 35
- 6.608035 3 2 ack 40 ------- 1 4.0 0.0 7 35
r 6.608043 4 3 ack 40 ------- 1 4.0 0.0 8 36
+ 6.608043 3 2 ack 40 ------- 1 4.0 0.0 8 36
- 6.608043 3 2 ack 40 ------- 1 4.0 0.0 8 36
r 6.608051 4 3 ack 40 ------- 1 4.0 0.0 9 37
+ 6.608051 3 2 ack 40 ------- 1 4.0 0.0 9 37
- 6.608051 3 2 ack 40 ------- 1 4.0 0.0 9 37
r 6.60806 4 3 ack 40 ------- 1 4.0 0.0 10 38
+ 6.60806 3 2 ack 40 ------- 1 4.0 0.0 10 38
- 6.60806 3 2 ack 40 ------- 1 4.0 0.0 10 38
r 6.608068 4 3 ack 40 ------- 1 4.0 0.0 11 39
+ 6.608068 3 2 ack 40 ------- 1 4.0 0.0 11 39
- 6.608068 3 2 ack 40 ------- 1 4.0 0.0 11 39
r 6.608076 4 3 ack 40 ------- 1 4.0 0.0 12 40
+ 6.608076 3 2 ack 40 ------- 1 4.0 0.0 12 40
- 6.608076 3 2 ack 40 ------- 1 4.0 0.0 12 40
r 6.608085 4 3 ack 40 ------- 1 4.0 0.0 13 41
+ 6.608085 3 2 ack 40 ------- 1 4.0 0.0 13 41
- 6.608085 3 2 ack 40 ------- 1 4.0 0.0 13 41
r 6.658027 3 2 ack 40 ------- 1 4.0 0.0 6 34
+ 6.658027 2 0 ack 40 ------- 1 4.0 0.0 6 34
- 6.658027 2 0 ack 40 ------- 1 4.0 0.0 6 34
r 6.658035 3 2 ack 40 ------- 1 4.0 0.0 7 35
+ 6.658035 2 0 ack 40 ------- 1 4.0 0.0 7 35
- 6.658035 2 0 ack 40 ------- 1 4.0 0.0 7 35
r 6.658043 3 2 ack 40 ------- 1 4.0 0.0 8 36
+ 6.658043 2 0 ack 40 ------- 1 4.0 0.0 8 36
- 6.658043 2 0 ack 40 ------- 1 4.0 0.0 8 36
r 6.658052 3 2 ack 40 ------- 1 4.0 0.0 9 37
+ 6.658052 2 0 ack 40 ------- 1 4.0 0.0 9 37
- 6.658052 2 0 ack 40 ------- 1 4.0 0.0 9 37
r 6.65806 3 2 ack 40 ------- 1 4.0 0.0 10 38
+ 6.65806 2 0 ack 40 ------- 1 4.0 0.0 10 38
- 6.65806 2 0 ack 40 ------- 1 4.0 0.0 10 38
r 6.658068 3 2 ack 40 ------- 1 4.0 0.0 11 39
+ 6.658068 2 0 ack 40 ------- 1 4.0 0.0 11 39
- 6.658068 2 0 ack 40 ------- 1 4.0 0.0 11 39
r 6.658077 3 2 ack 40 ------- 1 4.0 0.0 12 40
+ 6.658077 2 0 ack 40 ------- 1 4.0 0.0 12 40
- 6.658077 2 0 ack 40 ------- 1 4.0 0.0 12 40
r 6.658085 3 2 ack 40 ------- 1 4.0 0.0 13 41
+ 6.658085 2 0 ack 40 ------- 1 4.0 0.0 13 41
- 6.658085 2 0 ack 40 ------- 1 4.0 0.0 13 41
r 7.048014 2 1 ack 40 ------- 2 5.0 1.0 1 30
r 7.048022 2 1 ack 40 ------- 2 5.0 1.0 2 31
7.04802  1  0  5  0  ack_ 2
7.04802  1  0  5  0  rtt_ 3.524 
+ 7.048022 1 2 tcp 1040 ------- 2 1.0 5.0 5 42
- 7.048022 1 2 tcp 1040 ------- 2 1.0 5.0 5 42
7.04802  1  0  5  0  maxseq_ 5
r 7.048031 2 1 ack 40 ------- 2 5.0 1.0 3 32
7.04803  1  0  5  0  ack_ 3
+ 7.048031 1 2 tcp 1040 ------- 2 1.0 5.0 6 43
- 7.048031 1 2 tcp 1040 ------- 2 1.0 5.0 6 43
7.04803  1  0  5  0  maxseq_ 6
r 7.048039 2 1 ack 40 ------- 2 5.0 1.0 4 33
7.04804  1  0  5  0  ack_ 4
+ 7.048039 1 2 tcp 1040 ------- 2 1.0 5.0 7 44
- 7.048039 1 2 tcp 1040 ------- 2 1.0 5.0 7 44
7.04804  1  0  5  0  maxseq_ 7
r 7.236027 2 0 ack 40 ------- 1 4.0 0.0 6 34
7.23603  0  0  4  0  ack_ 6
7.23603  0  0  4  0  cwnd_ 9.000 
+ 7.236027 0 2 tcp 1040 ------- 1 0.0 4.0 14 45
- 7.236027 0 2 tcp 1040 ------- 1 0.0 4.0 14 45
7.23603  0  0  4  0  maxseq_ 14
+ 7.236027 0 2 tcp 1040 ------- 1 0.0 4.0 15 46
7.23603  0  0  4  0  maxseq_ 15
- 7.236029 0 2 tcp 1040 ------- 1 0.0 4.0 15 46
r 7.236035 2 0 ack 40 ------- 1 4.0 0.0 7 35
7.23604  0  0  4  0  ack_ 7
7.23604  0  0  4  0  cwnd_ 10.000
+ 7.236035 0 2 tcp 1040 ------- 1 0.0 4.0 16 47
- 7.236035 0 2 tcp 1040 ------- 1 0.0 4.0 16 47
7.23604  0  0  4  0  maxseq_ 16
+ 7.236035 0 2 tcp 1040 ------- 1 0.0 4.0 17 48
7.23604  0  0  4  0  maxseq_ 17
- 7.236037 0 2 tcp 1040 ------- 1 0.0 4.0 17 48
r 7.236044 2 0 ack 40 ------- 1 4.0 0.0 8 36
7.23604  0  0  4  0  ack_ 8
7.23604  0  0  4  0  cwnd_ 11.000
+ 7.236044 0 2 tcp 1040 ------- 1 0.0 4.0 18 49
- 7.236044 0 2 tcp 1040 ------- 1 0.0 4.0 18 49
7.23604  0  0  4  0  maxseq_ 18
+ 7.236044 0 2 tcp 1040 ------- 1 0.0 4.0 19 50
7.23604  0  0  4  0  maxseq_ 19
- 7.236046 0 2 tcp 1040 ------- 1 0.0 4.0 19 50
r 7.236052 2 0 ack 40 ------- 1 4.0 0.0 9 37
7.23605  0  0  4  0  ack_ 9
7.23605  0  0  4  0  cwnd_ 12.000
+ 7.236052 0 2 tcp 1040 ------- 1 0.0 4.0 20 51
- 7.236052 0 2 tcp 1040 ------- 1 0.0 4.0 20 51
7.23605  0  0  4  0  maxseq_ 20
+ 7.236052 0 2 tcp 1040 ------- 1 0.0 4.0 21 52
7.23605  0  0  4  0  maxseq_ 21
- 7.236054 0 2 tcp 1040 ------- 1 0.0 4.0 21 52
r 7.23606 2 0 ack 40 ------- 1 4.0 0.0 10 38
7.23606  0  0  4  0  ack_ 10
7.23606  0  0  4  0  cwnd_ 13.000
+ 7.23606 0 2 tcp 1040 ------- 1 0.0 4.0 22 53
- 7.23606 0 2 tcp 1040 ------- 1 0.0 4.0 22 53
7.23606  0  0  4  0  maxseq_ 22
+ 7.23606 0 2 tcp 1040 ------- 1 0.0 4.0 23 54
7.23606  0  0  4  0  maxseq_ 23
- 7.236062 0 2 tcp 1040 ------- 1 0.0 4.0 23 54
r 7.236068 2 0 ack 40 ------- 1 4.0 0.0 11 39
7.23607  0  0  4  0  ack_ 11
7.23607  0  0  4  0  cwnd_ 14.000
+ 7.236068 0 2 tcp 1040 ------- 1 0.0 4.0 24 55
- 7.236068 0 2 tcp 1040 ------- 1 0.0 4.0 24 55
7.23607  0  0  4  0  maxseq_ 24
+ 7.236068 0 2 tcp 1040 ------- 1 0.0 4.0 25 56
7.23607  0  0  4  0  maxseq_ 25
- 7.236071 0 2 tcp 1040 ------- 1 0.0 4.0 25 56
r 7.236077 2 0 ack 40 ------- 1 4.0 0.0 12 40
7.23608  0  0  4  0  ack_ 12
7.23608  0  0  4  0  cwnd_ 15.000
+ 7.236077 0 2 tcp 1040 ------- 1 0.0 4.0 26 57
- 7.236077 0 2 tcp 1040 ------- 1 0.0 4.0 26 57
7.23608  0  0  4  0  maxseq_ 26
+ 7.236077 0 2 tcp 1040 ------- 1 0.0 4.0 27 58
7.23608  0  0  4  0  maxseq_ 27
- 7.236079 0 2 tcp 1040 ------- 1 0.0 4.0 27 58
r 7.236085 2 0 ack 40 ------- 1 4.0 0.0 13 41
7.23609  0  0  4  0  ack_ 13
7.23609  0  0  4  0  cwnd_ 16.000
+ 7.236085 0 2 tcp 1040 ------- 1 0.0 4.0 28 59
- 7.236085 0 2 tcp 1040 ------- 1 0.0 4.0 28 59
7.23609  0  0  4  0  maxseq_ 28
+ 7.236085 0 2 tcp 1040 ------- 1 0.0 4.0 29 60
7.23609  0  0  4  0  maxseq_ 29
- 7.236087 0 2 tcp 1040 ------- 1 0.0 4.0 29 60
r 7.814029 0 2 tcp 1040 ------- 1 0.0 4.0 14 45
+ 7.814029 2 3 tcp 1040 ------- 1 0.0 4.0 14 45
- 7.814029 2 3 tcp 1040 ------- 1 0.0 4.0 14 45
r 7.814031 0 2 tcp 1040 ------- 1 0.0 4.0 15 46
+ 7.814031 2 3 tcp 1040 ------- 1 0.0 4.0 15 46
r 7.814037 0 2 tcp 1040 ------- 1 0.0 4.0 16 47
+ 7.814037 2 3 tcp 1040 ------- 1 0.0 4.0 16 47
- 7.814037 2 3 tcp 1040 ------- 1 0.0 4.0 15 46
r 7.814039 0 2 tcp 1040 ------- 1 0.0 4.0 17 48
+ 7.814039 2 3 tcp 1040 ------- 1 0.0 4.0 17 48
r 7.814046 0 2 tcp 1040 ------- 1 0.0 4.0 18 49
+ 7.814046 2 3 tcp 1040 ------- 1 0.0 4.0 18 49
- 7.814046 2 3 tcp 1040 ------- 1 0.0 4.0 16 47
r 7.814048 0 2 tcp 1040 ------- 1 0.0 4.0 19 50
+ 7.814048 2 3 tcp 1040 ------- 1 0.0 4.0 19 50
r 7.814054 0 2 tcp 1040 ------- 1 0.0 4.0 20 51
+ 7.814054 2 3 tcp 1040 ------- 1 0.0 4.0 20 51
- 7.814054 2 3 tcp 1040 ------- 1 0.0 4.0 17 48
r 7.814056 0 2 tcp 1040 ------- 1 0.0 4.0 21 52
+ 7.814056 2 3 tcp 1040 ------- 1 0.0 4.0 21 52
r 7.814062 0 2 tcp 1040 ------- 1 0.0 4.0 22 53
+ 7.814062 2 3 tcp 1040 ------- 1 0.0 4.0 22 53
- 7.814062 2 3 tcp 1040 ------- 1 0.0 4.0 18 49
r 7.814064 0 2 tcp 1040 ------- 1 0.0 4.0 23 54
+ 7.814064 2 3 tcp 1040 ------- 1 0.0 4.0 23 54
r 7.814071 0 2 tcp 1040 ------- 1 0.0 4.0 24 55
+ 7.814071 2 3 tcp 1040 ------- 1 0.0 4.0 24 55
- 7.814071 2 3 tcp 1040 ------- 1 0.0 4.0 19 50
r 7.814073 0 2 tcp 1040 ------- 1 0.0 4.0 25 56
+ 7.814073 2 3 tcp 1040 ------- 1 0.0 4.0 25 56
r 7.814079 0 2 tcp 1040 ------- 1 0.0 4.0 26 57
+ 7.814079 2 3 tcp 1040 ------- 1 0.0 4.0 26 57
- 7.814079 2 3 tcp 1040 ------- 1 0.0 4.0 20 51
r 7.814081 0 2 tcp 1040 ------- 1 0.0 4.0 27 58
+ 7.814081 2 3 tcp 1040 ------- 1 0.0 4.0 27 58
r 7.814087 0 2 tcp 1040 ------- 1 0.0 4.0 28 59
+ 7.814087 2 3 tcp 1040 ------- 1 0.0 4.0 28 59
- 7.814087 2 3 tcp 1040 ------- 1 0.0 4.0 21 52
r 7.814089 0 2 tcp 1040 ------- 1 0.0 4.0 29 60
+ 7.814089 2 3 tcp 1040 ------- 1 0.0 4.0 29 60
- 7.814096 2 3 tcp 1040 ------- 1 0.0 4.0 22 53
- 7.814104 2 3 tcp 1040 ------- 1 0.0 4.0 23 54
- 7.814112 2 3 tcp 1040 ------- 1 0.0 4.0 24 55
- 7.81412 2 3 tcp 1040 ------- 1 0.0 4.0 25 56
- 7.814129 2 3 tcp 1040 ------- 1 0.0 4.0 26 57
- 7.814137 2 3 tcp 1040 ------- 1 0.0 4.0 27 58
- 7.814145 2 3 tcp 1040 ------- 1 0.0 4.0 28 59
- 7.814154 2 3 tcp 1040 ------- 1 0.0 4.0 29 60
r 7.864037 2 3 tcp 1040 ------- 1 0.0 4.0 14 45
+ 7.864037 3 4 tcp 1040 ------- 1 0.0 4.0 14 45
- 7.864037 3 4 tcp 1040 ------- 1 0.0 4.0 14 45
r 7.864046 2 3 tcp 1040 ------- 1 0.0 4.0 15 46
+ 7.864046 3 4 tcp 1040 ------- 1 0.0 4.0 15 46
- 7.864046 3 4 tcp 1040 ------- 1 0.0 4.0 15 46
r 7.864054 2 3 tcp 1040 ------- 1 0.0 4.0 16 47
+ 7.864054 3 4 tcp 1040 ------- 1 0.0 4.0 16 47
- 7.864054 3 4 tcp 1040 ------- 1 0.0 4.0 16 47
r 7.864062 2 3 tcp 1040 ------- 1 0.0 4.0 17 48
+ 7.864062 3 4 tcp 1040 ------- 1 0.0 4.0 17 48
- 7.864062 3 4 tcp 1040 ------- 1 0.0 4.0 17 48
r 7.864071 2 3 tcp 1040 ------- 1 0.0 4.0 18 49
+ 7.864071 3 4 tcp 1040 ------- 1 0.0 4.0 18 49
- 7.864071 3 4 tcp 1040 ------- 1 0.0 4.0 18 49
r 7.864079 2 3 tcp 1040 ------- 1 0.0 4.0 19 50
+ 7.864079 3 4 tcp 1040 ------- 1 0.0 4.0 19 50
- 7.864079 3 4 tcp 1040 ------- 1 0.0 4.0 19 50
r 7.864087 2 3 tcp 1040 ------- 1 0.0 4.0 20 51
+ 7.864087 3 4 tcp 1040 ------- 1 0.0 4.0 20 51
- 7.864087 3 4 tcp 1040 ------- 1 0.0 4.0 20 51
r 7.864096 2 3 tcp 1040 ------- 1 0.0 4.0 21 52
+ 7.864096 3 4 tcp 1040 ------- 1 0.0 4.0 21 52
- 7.864096 3 4 tcp 1040 ------- 1 0.0 4.0 21 52
r 7.864104 2 3 tcp 1040 ------- 1 0.0 4.0 22 53
+ 7.864104 3 4 tcp 1040 ------- 1 0.0 4.0 22 53
- 7.864104 3 4 tcp 1040 ------- 1 0.0 4.0 22 53
r 7.864112 2 3 tcp 1040 ------- 1 0.0 4.0 23 54
+ 7.864112 3 4 tcp 1040 ------- 1 0.0 4.0 23 54
- 7.864112 3 4 tcp 1040 ------- 1 0.0 4.0 23 54
r 7.86412 2 3 tcp 1040 ------- 1 0.0 4.0 24 55
+ 7.86412 3 4 tcp 1040 ------- 1 0.0 4.0 24 55
- 7.86412 3 4 tcp 1040 ------- 1 0.0 4.0 24 55
r 7.864129 2 3 tcp 1040 ------- 1 0.0 4.0 25 56
+ 7.864129 3 4 tcp 1040 ------- 1 0.0 4.0 25 56
- 7.864129 3 4 tcp 1040 ------- 1 0.0 4.0 25 56
r 7.864137 2 3 tcp 1040 ------- 1 0.0 4.0 26 57
+ 7.864137 3 4 tcp 1040 ------- 1 0.0 4.0 26 57
- 7.864137 3 4 tcp 1040 ------- 1 0.0 4.0 26 57
r 7.864145 2 3 tcp 1040 ------- 1 0.0 4.0 27 58
+ 7.864145 3 4 tcp 1040 ------- 1 0.0 4.0 27 58
- 7.864145 3 4 tcp 1040 ------- 1 0.0 4.0 27 58
r 7.864154 2 3 tcp 1040 ------- 1 0.0 4.0 28 59
+ 7.864154 3 4 tcp 1040 ------- 1 0.0 4.0 28 59
- 7.864154 3 4 tcp 1040 ------- 1 0.0 4.0 28 59
r 7.864162 2 3 tcp 1040 ------- 1 0.0 4.0 29 60
+ 7.864162 3 4 tcp 1040 ------- 1 0.0 4.0 29 60
- 7.864162 3 4 tcp 1040 ------- 1 0.0 4.0 29 60
r 7.904024 1 2 tcp 1040 ------- 2 1.0 5.0 5 42
+ 7.904024 2 3 tcp 1040 ------- 2 1.0 5.0 5 42
- 7.904024 2 3 tcp 1040 ------- 2 1.0 5.0 5 42
r 7.904033 1 2 tcp 1040 ------- 2 1.0 5.0 6 43
+ 7.904033 2 3 tcp 1040 ------- 2 1.0 5.0 6 43
- 7.904033 2 3 tcp 1040 ------- 2 1.0 5.0 6 43
r 7.904041 1 2 tcp 1040 ------- 2 1.0 5.0 7 44
+ 7.904041 2 3 tcp 1040 ------- 2 1.0 5.0 7 44
- 7.904041 2 3 tcp 1040 ------- 2 1.0 5.0 7 44
r 7.954033 2 3 tcp 1040 ------- 2 1.0 5.0 5 42
+ 7.954033 3 5 tcp 1040 ------- 2 1.0 5.0 5 42
- 7.954033 3 5 tcp 1040 ------- 2 1.0 5.0 5 42
r 7.954041 2 3 tcp 1040 ------- 2 1.0 5.0 6 43
+ 7.954041 3 5 tcp 1040 ------- 2 1.0 5.0 6 43
- 7.954041 3 5 tcp 1040 ------- 2 1.0 5.0 6 43
r 7.954049 2 3 tcp 1040 ------- 2 1.0 5.0 7 44
+ 7.954049 3 5 tcp 1040 ------- 2 1.0 5.0 7 44
- 7.954049 3 5 tcp 1040 ------- 2 1.0 5.0 7 44
r 8.442039 3 4 tcp 1040 ------- 1 0.0 4.0 14 45
+ 8.442039 4 3 ack 40 ------- 1 4.0 0.0 14 61
- 8.442039 4 3 ack 40 ------- 1 4.0 0.0 14 61
r 8.442048 3 4 tcp 1040 ------- 1 0.0 4.0 15 46
+ 8.442048 4 3 ack 40 ------- 1 4.0 0.0 15 62
- 8.442048 4 3 ack 40 ------- 1 4.0 0.0 15 62
r 8.442056 3 4 tcp 1040 ------- 1 0.0 4.0 16 47
+ 8.442056 4 3 ack 40 ------- 1 4.0 0.0 16 63
- 8.442056 4 3 ack 40 ------- 1 4.0 0.0 16 63
r 8.442064 3 4 tcp 1040 ------- 1 0.0 4.0 17 48
+ 8.442064 4 3 ack 40 ------- 1 4.0 0.0 17 64
- 8.442064 4 3 ack 40 ------- 1 4.0 0.0 17 64
r 8.442073 3 4 tcp 1040 ------- 1 0.0 4.0 18 49
+ 8.442073 4 3 ack 40 ------- 1 4.0 0.0 18 65
- 8.442073 4 3 ack 40 ------- 1 4.0 0.0 18 65
r 8.442081 3 4 tcp 1040 ------- 1 0.0 4.0 19 50
+ 8.442081 4 3 ack 40 ------- 1 4.0 0.0 19 66
- 8.442081 4 3 ack 40 ------- 1 4.0 0.0 19 66
r 8.442089 3 4 tcp 1040 ------- 1 0.0 4.0 20 51
+ 8.442089 4 3 ack 40 ------- 1 4.0 0.0 20 67
- 8.442089 4 3 ack 40 ------- 1 4.0 0.0 20 67
r 8.442098 3 4 tcp 1040 ------- 1 0.0 4.0 21 52
+ 8.442098 4 3 ack 40 ------- 1 4.0 0.0 21 68
- 8.442098 4 3 ack 40 ------- 1 4.0 0.0 21 68
r 8.442106 3 4 tcp 1040 ------- 1 0.0 4.0 22 53
+ 8.442106 4 3 ack 40 ------- 1 4.0 0.0 22 69
- 8.442106 4 3 ack 40 ------- 1 4.0 0.0 22 69
r 8.442114 3 4 tcp 1040 ------- 1 0.0 4.0 23 54
+ 8.442114 4 3 ack 40 ------- 1 4.0 0.0 23 70
- 8.442114 4 3 ack 40 ------- 1 4.0 0.0 23 70
r 8.442123 3 4 tcp 1040 ------- 1 0.0 4.0 24 55
+ 8.442123 4 3 ack 40 ------- 1 4.0 0.0 24 71
- 8.442123 4 3 ack 40 ------- 1 4.0 0.0 24 71
r 8.442131 3 4 tcp 1040 ------- 1 0.0 4.0 25 56
+ 8.442131 4 3 ack 40 ------- 1 4.0 0.0 25 72
- 8.442131 4 3 ack 40 ------- 1 4.0 0.0 25 72
r 8.442139 3 4 tcp 1040 ------- 1 0.0 4.0 26 57
+ 8.442139 4 3 ack 40 ------- 1 4.0 0.0 26 73
- 8.442139 4 3 ack 40 ------- 1 4.0 0.0 26 73
r 8.442148 3 4 tcp 1040 ------- 1 0.0 4.0 27 58
+ 8.442148 4 3 ack 40 ------- 1 4.0 0.0 27 74
- 8.442148 4 3 ack 40 ------- 1 4.0 0.0 27 74
r 8.442156 3 4 tcp 1040 ------- 1 0.0 4.0 28 59
+ 8.442156 4 3 ack 40 ------- 1 4.0 0.0 28 75
- 8.442156 4 3 ack 40 ------- 1 4.0 0.0 28 75
r 8.442164 3 4 tcp 1040 ------- 1 0.0 4.0 29 60
+ 8.442164 4 3 ack 40 ------- 1 4.0 0.0 29 76
- 8.442164 4 3 ack 40 ------- 1 4.0 0.0 29 76
r 8.810035 3 5 tcp 1040 ------- 2 1.0 5.0 5 42
+ 8.810035 5 3 ack 40 ------- 2 5.0 1.0 5 77
- 8.810035 5 3 ack 40 ------- 2 5.0 1.0 5 77
r 8.810043 3 5 tcp 1040 ------- 2 1.0 5.0 6 43
+ 8.810043 5 3 ack 40 ------- 2 5.0 1.0 6 78
- 8.810043 5 3 ack 40 ------- 2 5.0 1.0 6 78
r 8.810051 3 5 tcp 1040 ------- 2 1.0 5.0 7 44
+ 8.810051 5 3 ack 40 ------- 2 5.0 1.0 7 79
- 8.810051 5 3 ack 40 ------- 2 5.0 1.0 7 79
r 9.020039 4 3 ack 40 ------- 1 4.0 0.0 14 61
+ 9.020039 3 2 ack 40 ------- 1 4.0 0.0 14 61
- 9.020039 3 2 ack 40 ------- 1 4.0 0.0 14 61