0.00000  0  0  4  0  cwnd_ 2.000 
0.00000  0  0  4  0  ssthresh_ 20
0.00000  0  0  4  0  ack_ -1
0.00000  0  0  4  0  maxseq_ -1
0.00000  0  0  4  0  rtt_ 0.000 
0.00000  1  0  5  0  cwnd_ 2.000 
0.00000  1  0  5  0  ssthresh_ 20
0.00000  1  0  5  0  ack_ -1
0.00000  1  0  5  0  maxseq_ -1
0.00000  1  0  5  0  rtt_ 0.000 
0.00000  0  0  4  0  ssthresh_ 1000
0.00000  1  0  5  0  ssthresh_ 1000
+ 0 1 2 tcp 40 ------- 2 1.0 5.0 0 0
- 0 1 2 tcp 40 ------- 2 1.0 5.0 0 0
0.00000  1  0  5  0  maxseq_ 0
+ 0 1 2 tcp 1040 ------- 2 1.0 5.0 1 1
0.00000  1  0  5  0  maxseq_ 1
+ 0 0 2 tcp 40 ------- 1 0.0 4.0 0 2
- 0 0 2 tcp 40 ------- 1 0.0 4.0 0 2
0.00000  0  0  4  0  maxseq_ 0
+ 0 0 2 tcp 1040 ------- 1 0.0 4.0 1 3
0.00000  0  0  4  0  maxseq_ 1
- 0 1 2 tcp 1040 ------- 2 1.0 5.0 1 1
- 0 0 2 tcp 1040 ------- 1 0.0 4.0 1 3
r 0.567 0 2 tcp 40 ------- 1 0.0 4.0 0 2
+ 0.567 2 3 tcp 40 ------- 1 0.0 4.0 0 2
- 0.567 2 3 tcp 40 ------- 1 0.0 4.0 0 2
r 0.567002 0 2 tcp 1040 ------- 1 0.0 4.0 1 3
+ 0.567002 2 3 tcp 1040 ------- 1 0.0 4.0 1 3
- 0.567002 2 3 tcp 1040 ------- 1 0.0 4.0 1 3
r 0.617 2 3 tcp 40 ------- 1 0.0 4.0 0 2
+ 0.617 3 4 tcp 40 ------- 1 0.0 4.0 0 2
- 0.617 3 4 tcp 40 ------- 1 0.0 4.0 0 2
r 0.61701 2 3 tcp 1040 ------- 1 0.0 4.0 1 3
+ 0.61701 3 4 tcp 1040 ------- 1 0.0 4.0 1 3
- 0.61701 3 4 tcp 1040 ------- 1 0.0 4.0 1 3
r 0.845 1 2 tcp 40 ------- 2 1.0 5.0 0 0
+ 0.845 2 3 tcp 40 ------- 2 1.0 5.0 0 0
- 0.845 2 3 tcp 40 ------- 2 1.0 5.0 0 0
r 0.845002 1 2 tcp 1040 ------- 2 1.0 5.0 1 1
+ 0.845002 2 3 tcp 1040 ------- 2 1.0 5.0 1 1
- 0.845002 2 3 tcp 1040 ------- 2 1.0 5.0 1 1
r 0.895 2 3 tcp 40 ------- 2 1.0 5.0 0 0
+ 0.895 3 5 tcp 40 ------- 2 1.0 5.0 0 0
- 0.895 3 5 tcp 40 ------- 2 1.0 5.0 0 0
r 0.89501 2 3 tcp 1040 ------- 2 1.0 5.0 1 1
+ 0.89501 3 5 tcp 1040 ------- 2 1.0 5.0 1 1
- 0.89501 3 5 tcp 1040 ------- 2 1.0 5.0 1 1
r 1.184 3 4 tcp 40 ------- 1 0.0 4.0 0 2
+ 1.184 4 3 ack 40 ------- 1 4.0 0.0 0 4
- 1.184 4 3 ack 40 ------- 1 4.0 0.0 0 4
r 1.184013 3 4 tcp 1040 ------- 1 0.0 4.0 1 3
+ 1.184013 4 3 ack 40 ------- 1 4.0 0.0 1 5
- 1.184013 4 3 ack 40 ------- 1 4.0 0.0 1 5
r 1.74 3 5 tcp 40 ------- 2 1.0 5.0 0 0
+ 1.74 5 3 ack 40 ------- 2 5.0 1.0 0 6
- 1.74 5 3 ack 40 ------- 2 5.0 1.0 0 6
r 1.740013 3 5 tcp 1040 ------- 2 1.0 5.0 1 1
+ 1.740013 5 3 ack 40 ------- 2 5.0 1.0 1 7
- 1.740013 5 3 ack 40 ------- 2 5.0 1.0 1 7
r 1.751001 4 3 ack 40 ------- 1 4.0 0.0 0 4
+ 1.751001 3 2 ack 40 ------- 1 4.0 0.0 0 4
- 1.751001 3 2 ack 40 ------- 1 4.0 0.0 0 4
r 1.751013 4 3 ack 40 ------- 1 4.0 0.0 1 5
+ 1.751013 3 2 ack 40 ------- 1 4.0 0.0 1 5
- 1.751013 3 2 ack 40 ------- 1 4.0 0.0 1 5
r 1.801001 3 2 ack 40 ------- 1 4.0 0.0 0 4
+ 1.801001 2 0 ack 40 ------- 1 4.0 0.0 0 4
- 1.801001 2 0 ack 40 ------- 1 4.0 0.0 0 4
r 1.801013 3 2 ack 40 ------- 1 4.0 0.0 1 5
+ 1.801013 2 0 ack 40 ------- 1 4.0 0.0 1 5
- 1.801013 2 0 ack 40 ------- 1 4.0 0.0 1 5
r 2.368001 2 0 ack 40 ------- 1 4.0 0.0 0 4
2.36800  0  0  4  0  ack_ 0
2.36800  0  0  4  0  rtt_ 2.368 
2.36800  0  0  4  0  cwnd_ 3.000 
+ 2.368001 0 2 tcp 1040 ------- 1 0.0 4.0 2 8
- 2.368001 0 2 tcp 1040 ------- 1 0.0 4.0 2 8
2.36800  0  0  4  0  maxseq_ 2
+ 2.368001 0 2 tcp 1040 ------- 1 0.0 4.0 3 9
2.36800  0  0  4  0  maxseq_ 3
- 2.368003 0 2 tcp 1040 ------- 1 0.0 4.0 3 9
r 2.368013 2 0 ack 40 ------- 1 4.0 0.0 1 5
2.36801  0  0  4  0  ack_ 1
2.36801  0  0  4  0  cwnd_ 4.000 
+ 2.368013 0 2 tcp 1040 ------- 1 0.0 4.0 4 10
- 2.368013 0 2 tcp 1040 ------- 1 0.0 4.0 4 10
2.36801  0  0  4  0  maxseq_ 4
+ 2.368013 0 2 tcp 1040 ------- 1 0.0 4.0 5 11
2.36801  0  0  4  0  maxseq_ 5
- 2.368015 0 2 tcp 1040 ------- 1 0.0 4.0 5 11
r 2.585001 5 3 ack 40 ------- 2 5.0 1.0 0 6
+ 2.585001 3 2 ack 40 ------- 2 5.0 1.0 0 6
- 2.585001 3 2 ack 40 ------- 2 5.0 1.0 0 6
r 2.585013 5 3 ack 40 ------- 2 5.0 1.0 1 7
+ 2.585013 3 2 ack 40 ------- 2 5.0 1.0 1 7
- 2.585013 3 2 ack 40 ------- 2 5.0 1.0 1 7
r 2.635001 3 2 ack 40 ------- 2 5.0 1.0 0 6
+ 2.635001 2 1 ack 40 ------- 2 5.0 1.0 0 6
- 2.635001 2 1 ack 40 ------- 2 5.0 1.0 0 6
r 2.635013 3 2 ack 40 ------- 2 5.0 1.0 1 7
+ 2.635013 2 1 ack 40 ------- 2 5.0 1.0 1 7
- 2.635013 2 1 ack 40 ------- 2 5.0 1.0 1 7
r 2.935003 0 2 tcp 1040 ------- 1 0.0 4.0 2 8
+ 2.935003 2 3 tcp 1040 ------- 1 0.0 4.0 2 8
- 2.935003 2 3 tcp 1040 ------- 1 0.0 4.0 2 8
r 2.935005 0 2 tcp 1040 ------- 1 0.0 4.0 3 9
+ 2.935005 2 3 tcp 1040 ------- 1 0.0 4.0 3 9
- 2.935011 2 3 tcp 1040 ------- 1 0.0 4.0 3 9
r 2.935015 0 2 tcp 1040 ------- 1 0.0 4.0 4 10
+ 2.935015 2 3 tcp 1040 ------- 1 0.0 4.0 4 10
r 2.935017 0 2 tcp 1040 ------- 1 0.0 4.0 5 11
+ 2.935017 2 3 tcp 1040 ------- 1 0.0 4.0 5 11
- 2.93502 2 3 tcp 1040 ------- 1 0.0 4.0 4 10
- 2.935028 2 3 tcp 1040 ------- 1 0.0 4.0 5 11
r 2.985011 2 3 tcp 1040 ------- 1 0.0 4.0 2 8
+ 2.985011 3 4 tcp 1040 ------- 1 0.0 4.0 2 8
- 2.985011 3 4 tcp 1040 ------- 1 0.0 4.0 2 8
r 2.98502 2 3 tcp 1040 ------- 1 0.0 4.0 3 9
+ 2.98502 3 4 tcp 1040 ------- 1 0.0 4.0 3 9
- 2.98502 3 4 tcp 1040 ------- 1 0.0 4.0 3 9
r 2.985028 2 3 tcp 1040 ------- 1 0.0 4.0 4 10
+ 2.985028 3 4 tcp 1040 ------- 1 0.0 4.0 4 10
- 2.985028 3 4 tcp 1040 ------- 1 0.0 4.0 4 10
r 2.985036 2 3 tcp 1040 ------- 1 0.0 4.0 5 11
+ 2.985036 3 4 tcp 1040 ------- 1 0.0 4.0 5 11
- 2.985036 3 4 tcp 1040 ------- 1 0.0 4.0 5 11
3.00000  1  0  5  0  cwnd_ 1.000 
3.00000  1  0  5  0  ssthresh_ 2
+ 3 1 2 tcp 40 ---A--- 2 1.0 5.0 0 12
- 3 1 2 tcp 40 ---A--- 2 1.0 5.0 0 12
r 3.480001 2 1 ack 40 ------- 2 5.0 1.0 0 6
3.48000  1  0  5  0  ack_ 0
3.48000  1  0  5  0  cwnd_ 2.000 
+ 3.480001 1 2 tcp 1040 ------- 2 1.0 5.0 1 13
- 3.480001 1 2 tcp 1040 ------- 2 1.0 5.0 1 13
+ 3.480001 1 2 tcp 1040 ------- 2 1.0 5.0 2 14
3.48000  1  0  5  0  maxseq_ 2
- 3.480003 1 2 tcp 1040 ------- 2 1.0 5.0 2 14
r 3.480013 2 1 ack 40 ------- 2 5.0 1.0 1 7
3.48001  1  0  5  0  ack_ 1
3.48001  1  0  5  0  cwnd_ 3.000 
+ 3.480013 1 2 tcp 1040 ------- 2 1.0 5.0 3 15
- 3.480013 1 2 tcp 1040 ------- 2 1.0 5.0 3 15
3.48001  1  0  5  0  maxseq_ 3
+ 3.480013 1 2 tcp 1040 ------- 2 1.0 5.0 4 16
3.48001  1  0  5  0  maxseq_ 4
- 3.480015 1 2 tcp 1040 ------- 2 1.0 5.0 4 16
r 3.552013 3 4 tcp 1040 ------- 1 0.0 4.0 2 8
+ 3.552013 4 3 ack 40 ------- 1 4.0 0.0 2 17
- 3.552013 4 3 ack 40 ------- 1 4.0 0.0 2 17
r 3.552022 3 4 tcp 1040 ------- 1 0.0 4.0 3 9
+ 3.552022 4 3 ack 40 ------- 1 4.0 0.0 3 18
- 3.552022 4 3 ack 40 ------- 1 4.0 0.0 3 18
r 3.55203 3 4 tcp 1040 ------- 1 0.0 4.0 4 10
+ 3.55203 4 3 ack 40 ------- 1 4.0 0.0 4 19
- 3.55203 4 3 ack 40 ------- 1 4.0 0.0 4 19
r 3.552038 3 4 tcp 1040 ------- 1 0.0 4.0 5 11
+ 3.552038 4 3 ack 40 ------- 1 4.0 0.0 5 20
- 3.552038 4 3 ack 40 ------- 1 4.0 0.0 5 20
r 3.845 1 2 tcp 40 ---A--- 2 1.0 5.0 0 12
+ 3.845 2 3 tcp 40 ---A--- 2 1.0 5.0 0 12
- 3.845 2 3 tcp 40 ---A--- 2 1.0 5.0 0 12
r 3.895 2 3 tcp 40 ---A--- 2 1.0 5.0 0 12
+ 3.895 3 5 tcp 40 ---A--- 2 1.0 5.0 0 12
- 3.895 3 5 tcp 40 ---A--- 2 1.0 5.0 0 12
r 4.119014 4 3 ack 40 ------- 1 4.0 0.0 2 17
+ 4.119014 3 2 ack 40 ------- 1 4.0 0.0 2 17
- 4.119014 3 2 ack 40 ------- 1 4.0 0.0 2 17
r 4.119022 4 3 ack 40 ------- 1 4.0 0.0 3 18
+ 4.119022 3 2 ack 40 ------- 1 4.0 0.0 3 18
- 4.119022 3 2 ack 40 ------- 1 4.0 0.0 3 18
r 4.11903 4 3 ack 40 ------- 1 4.0 0.0 4 19
+ 4.11903 3 2 ack 40 ------- 1 4.0 0.0 4 19
- 4.11903 3 2 ack 40 ------- 1 4.0 0.0 4 19
r 4.119038 4 3 ack 40 ------- 1 4.0 0.0 5 20
+ 4.119038 3 2 ack 40 ------- 1 4.0 0.0 5 20
- 4.119038 3 2 ack 40 ------- 1 4.0 0.0 5 20
r 4.169014 3 2 ack 40 ------- 1 4.0 0.0 2 17
+ 4.169014 2 0 ack 40 ------- 1 4.0 0.0 2 17
- 4.169014 2 0 ack 40 ------- 1 4.0 0.0 2 17
r 4.169022 3 2 ack 40 ------- 1 4.0 0.0 3 18
+ 4.169022 2 0 ack 40 ------- 1 4.0 0.0 3 18
- 4.169022 2 0 ack 40 ------- 1 4.0 0.0 3 18
r 4.16903 3 2 ack 40 ------- 1 4.0 0.0 4 19
+ 4.16903 2 0 ack 40 ------- 1 4.0 0.0 4 19
- 4.16903 2 0 ack 40 ------- 1 4.0 0.0 4 19
r 4.169039 3 2 ack 40 ------- 1 4.0 0.0 5 20
+ 4.169039 2 0 ack 40 ------- 1 4.0 0.0 5 20
- 4.169039 2 0 ack 40 ------- 1 4.0 0.0 5 20
r 4.325003 1 2 tcp 1040 ------- 2 1.0 5.0 1 13
+ 4.325003 2 3 tcp 1040 ------- 2 1.0 5.0 1 13
- 4.325003 2 3 tcp 1040 ------- 2 1.0 5.0 1 13
r 4.325005 1 2 tcp 1040 ------- 2 1.0 5.0 2 14
+ 4.325005 2 3 tcp 1040 ------- 2 1.0 5.0 2 14
- 4.325011 2 3 tcp 1040 ------- 2 1.0 5.0 2 14
r 4.325015 1 2 tcp 1040 ------- 2 1.0 5.0 3 15
+ 4.325015 2 3 tcp 1040 ------- 2 1.0 5.0 3 15
r 4.325017 1 2 tcp 1040 ------- 2 1.0 5.0 4 16
+ 4.325017 2 3 tcp 1040 ------- 2 1.0 5.0 4 16
- 4.32502 2 3 tcp 1040 ------- 2 1.0 5.0 3 15
- 4.325028 2 3 tcp 1040 ------- 2 1.0 5.0 4 16
r 4.375011 2 3 tcp 1040 ------- 2 1.0 5.0 1 13
+ 4.375011 3 5 tcp 1040 ------- 2 1.0 5.0 1 13
- 4.375011 3 5 tcp 1040 ------- 2 1.0 5.0 1 13
r 4.37502 2 3 tcp 1040 ------- 2 1.0 5.0 2 14
+ 4.37502 3 5 tcp 1040 ------- 2 1.0 5.0 2 14
- 4.37502 3 5 tcp 1040 ------- 2 1.0 5.0 2 14
r 4.375028 2 3 tcp 1040 ------- 2 1.0 5.0 3 15
+ 4.375028 3 5 tcp 1040 ------- 2 1.0 5.0 3 15
- 4.375028 3 5 tcp 1040 ------- 2 1.0 5.0 3 15
r 4.375036 2 3 tcp 1040 ------- 2 1.0 5.0 4 16
+ 4.375036 3 5 tcp 1040 ------- 2 1.0 5.0 4 16
- 4.375036 3 5 tcp 1040 ------- 2 1.0 5.0 4 16
r 4.736014 2 0 ack 40 ------- 1 4.0 0.0 2 17
4.73601  0  0  4  0  ack_ 2
4.73601  0  0  4  0  cwnd_ 5.000 
+ 4.736014 0 2 tcp 1040 ------- 1 0.0 4.0 6 21
- 4.736014 0 2 tcp 1040 ------- 1 0.0 4.0 6 21
4.73601  0  0  4  0  maxseq_ 6
+ 4.736014 0 2 tcp 1040 ------- 1 0.0 4.0 7 22
4.73601  0  0  4  0  maxseq_ 7
- 4.736016 0 2 tcp 1040 ------- 1 0.0 4.0 7 22
r 4.736022 2 0 ack 40 ------- 1 4.0 0.0 3 18
4.73602  0  0  4  0  ack_ 3
4.73602  0  0  4  0  cwnd_ 6.000 
+ 4.736022 0 2 tcp 1040 ------- 1 0.0 4.0 8 23
- 4.736022 0 2 tcp 1040 ------- 1 0.0 4.0 8 23
4.73602  0  0  4  0  maxseq_ 8
+ 4.736022 0 2 tcp 1040 ------- 1 0.0 4.0 9 24
4.73602  0  0  4  0  maxseq_ 9
- 4.736024 0 2 tcp 1040 ------- 1 0.0 4.0 9 24
r 4.736031 2 0 ack 40 ------- 1 4.0 0.0 4 19
4.73603  0  0  4  0  ack_ 4
4.73603  0  0  4  0  cwnd_ 7.000 
+ 4.736031 0 2 tcp 1040 ------- 1 0.0 4.0 10 25
- 4.736031 0 2 tcp 1040 ------- 1 0.0 4.0 10 25
4.73603  0  0  4  0  maxseq_ 10
+ 4.736031 0 2 tcp 1040 ------- 1 0.0 4.0 11 26
4.73603  0  0  4  0  maxseq_ 11
- 4.736033 0 2 tcp 1040 ------- 1 0.0 4.0 11 26
r 4.736039 2 0 ack 40 ------- 1 4.0 0.0 5 20
4.73604  0  0  4  0  ack_ 5
4.73604  0  0  4  0  cwnd_ 8.000 
+ 4.736039 0 2 tcp 1040 ------- 1 0.0 4.0 12 27
- 4.736039 0 2 tcp 1040 ------- 1 0.0 4.0 12 27
4.73604  0  0  4  0  maxseq_ 12
+ 4.736039 0 2 tcp 1040 ------- 1 0.0 4.0 13 28
4.73604  0  0  4  0  maxseq_ 13
- 4.736041 0 2 tcp 1040 ------- 1 0.0 4.0 13 28
r 4.74 3 5 tcp 40 ---A--- 2 1.0 5.0 0 12
+ 4.74 5 3 ack 40 ------- 2 5.0 1.0 1 29
- 4.74 5 3 ack 40 ------- 2 5.0 1.0 1 29
r 5.220013 3 5 tcp 1040 ------- 2 1.0 5.0 1 13
+ 5.220013 5 3 ack 40 ------- 2 5.0 1.0 1 30
- 5.220013 5 3 ack 40 ------- 2 5.0 1.0 1 30
r 5.220022 3 5 tcp 1040 ------- 2 1.0 5.0 2 14
+ 5.220022 5 3 ack 40 ------- 2 5.0 1.0 2 31
- 5.220022 5 3 ack 40 ------- 2 5.0 1.0 2 31
r 5.22003 3 5 tcp 1040 ------- 2 1.0 5.0 3 15
+ 5.22003 5 3 ack 40 ------- 2 5.0 1.0 3 32
- 5.22003 5 3 ack 40 ------- 2 5.0 1.0 3 32
r 5.220038 3 5 tcp 1040 ------- 2 1.0 5.0 4 16
+ 5.220038 5 3 ack 40 ------- 2 5.0 1.0 4 33
- 5.220038 5 3 ack 40 ------- 2 5.0 1.0 4 33
r 5.303016 0 2 tcp 1040 ------- 1 0.0 4.0 6 21
+ 5.303016 2 3 tcp 1040 ------- 1 0.0 4.0 6 21
- 5.303016 2 3 tcp 1040 ------- 1 0.0 4.0 6 21
r 5.303018 0 2 tcp 1040 ------- 1 0.0 4.0 7 22
+ 5.303018 2 3 tcp 1040 ------- 1 0.0 4.0 7 22
r 5.303024 0 2 tcp 1040 ------- 1 0.0 4.0 8 23
+ 5.303024 2 3 tcp 1040 ------- 1 0.0 4.0 8 23
- 5.303024 2 3 tcp 1040 ------- 1 0.0 4.0 7 22
r 5.303026 0 2 tcp 1040 ------- 1 0.0 4.0 9 24
+ 5.303026 2 3 tcp 1040 ------- 1 0.0 4.0 9 24
r 5.303033 0 2 tcp 1040 ------- 1 0.0 4.0 10 25
+ 5.303033 2 3 tcp 1040 ------- 1 0.0 4.0 10 25
- 5.303033 2 3 tcp 1040 ------- 1 0.0 4.0 8 23
r 5.303035 0 2 tcp 1040 ------- 1 0.0 4.0 11 26
+ 5.303035 2 3 tcp 1040 ------- 1 0.0 4.0 11 26
r 5.303041 0 2 tcp 1040 ------- 1 0.0 4.0 12 27
+ 5.303041 2 3 tcp 1040 ------- 1 0.0 4.0 12 27
- 5.303041 2 3 tcp 1040 ------- 1 0.0 4.0 9 24
r 5.303043 0 2 tcp 1040 ------- 1 0.0 4.0 13 28
+ 5.303043 2 3 tcp 1040 ------- 1 0.0 4.0 13 28
- 5.303049 2 3 tcp 1040 ------- 1 0.0 4.0 10 25
- 5.303058 2 3 tcp 1040 ------- 1 0.0 4.0 11 26
- 5.303066 2 3 tcp 1040 ------- 1 0.0 4.0 12 27
- 5.303074 2 3 tcp 1040 ------- 1 0.0 4.0 13 28
r 5.353024 2 3 tcp 1040 ------- 1 0.0 4.0 6 21
+ 5.353024 3 4 tcp 1040 ------- 1 0.0 4.0 6 21
- 5.353024 3 4 tcp 1040 ------- 1 0.0 4.0 6 21
r 5.353033 2 3 tcp 1040 ------- 1 0.0 4.0 7 22
+ 5.353033 3 4 tcp 1040 ------- 1 0.0 4.0 7 22
- 5.353033 3 4 tcp 1040 ------- 1 0.0 4.0 7 22
r 5.353041 2 3 tcp 1040 ------- 1 0.0 4.0 8 23
+ 5.353041 3 4 tcp 1040 ------- 1 0.0 4.0 8 23
- 5.353041 3 4 tcp 1040 ------- 1 0.0 4.0 8 23
r 5.353049 2 3 tcp 1040 ------- 1 0.0 4.0 9 24
+ 5.353049 3 4 tcp 1040 ------- 1 0.0 4.0 9 24
- 5.353049 3 4 tcp 1040 ------- 1 0.0 4.0 9 24
r 5.353058 2 3 tcp 1040 ------- 1 0.0 4.0 10 25
+ 5.353058 3 4 tcp 1040 ------- 1 0.0 4.0 10 25
- 5.353058 3 4 tcp 1040 ------- 1 0.0 4.0 10 25
r 5.353066 2 3 tcp 1040 ------- 1 0.0 4.0 11 26
+ 5.353066 3 4 tcp 1040 ------- 1 0.0 4.0 11 26
- 5.353066 3 4 tcp 1040 ------- 1 0.0 4.0 11 26
r 5.353074 2 3 tcp 1040 ------- 1 0.0 4.0 12 27
+ 5.353074 3 4 tcp 1040 ------- 1 0.0 4.0 12 27
- 5.353074 3 4 tcp 1040 ------- 1 0.0 4.0 12 27
r 5.353083 2 3 tcp 1040 ------- 1 0.0 4.0 13 28
+ 5.353083 3 4 tcp 1040 ------- 1 0.0 4.0 13 28
- 5.353083 3 4 tcp 1040 ------- 1 0.0 4.0 13 28
r 5.585001 5 3 ack 40 ------- 2 5.0 1.0 1 29
+ 5.585001 3 2 ack 40 ------- 2 5.0 1.0 1 29
- 5.585001 3 2 ack 40 ------- 2 5.0 1.0 1 29
r 5.635001 3 2 ack 40 ------- 2 5.0 1.0 1 29
+ 5.635001 2 1 ack 40 ------- 2 5.0 1.0 1 29
- 5.635001 2 1 ack 40 ------- 2 5.0 1.0 1 29
r 5.920026 3 4 tcp 1040 ------- 1 0.0 4.0 6 21
+ 5.920026 4 3 ack 40 ------- 1 4.0 0.0 6 34
- 5.920026 4 3 ack 40 ------- 1 4.0 0.0 6 34
r 5.920035 3 4 tcp 1040 ------- 1 0.0 4.0 7 22
+ 5.920035 4 3 ack 40 ------- 1 4.0 0.0 7 35
- 5.920035 4 3 ack 40 ------- 1 4.0 0.0 7 35
r 5.920043 3 4 tcp 1040 ------- 1 0.0 4.0 8 23
+ 5.920043 4 3 ack 40 ------- 1 4.0 0.0 8 36
- 5.920043 4 3 ack 40 ------- 1 4.0 0.0 8 36
r 5.920051 3 4 tcp 1040 ------- 1 0.0 4.0 9 24
+ 5.920051 4 3 ack 40 ------- 1 4.0 0.0 9 37
- 5.920051 4 3 ack 40 ------- 1 4.0 0.0 9 37
r 5.92006 3 4 tcp 1040 ------- 1 0.0 4.0 10 25
+ 5.92006 4 3 ack 40 ------- 1 4.0 0.0 10 38
- 5.92006 4 3 ack 40 ------- 1 4.0 0.0 10 38
r 5.920068 3 4 tcp 1040 ------- 1 0.0 4.0 11 26
+ 5.920068 4 3 ack 40 ------- 1 4.0 0.0 11 39
- 5.920068 4 3 ack 40 ------- 1 4.0 0.0 11 39
r 5.920076 3 4 tcp 1040 ------- 1 0.0 4.0 12 27
+ 5.920076 4 3 ack 40 ------- 1 4.0 0.0 12 40
- 5.920076 4 3 ack 40 ------- 1 4.0 0.0 12 40
r 5.920085 3 4 tcp 1040 ------- 1 0.0 4.0 13 28
+ 5.920085 4 3 ack 40 ------- 1 4.0 0.0 13 41
- 5.920085 4 3 ack 40 ------- 1 4.0 0.0 13 41
r 6.065014 5 3 ack 40 ------- 2 5.0 1.0 1 30
+ 6.065014 3 2 ack 40 ------- 2 5.0 1.0 1 30
- 6.065014 3 2 ack 40 ------- 2 5.0 1.0 1 30
r 6.065022 5 3 ack 40 ------- 2 5.0 1.0 2 31
+ 6.065022 3 2 ack 40 ------- 2 5.0 1.0 2 31
- 6.065022 3 2 ack 40 ------- 2 5.0 1.0 2 31
r 6.06503 5 3 ack 40 ------- 2 5.0 1.0 3 32
+ 6.06503 3 2 ack 40 ------- 2 5.0 1.0 3 32
- 6.06503 3 2 ack 40 ------- 2 5.0 1.0 3 32
r 6.065038 5 3 ack 40 ------- 2 5.0 1.0 4 33
+ 6.065038 3 2 ack 40 ------- 2 5.0 1.0 4 33
- 6.065038 3 2 ack 40 ------- 2 5.0 1.0 4 33
r 6.115014 3 2 ack 40 ------- 2 5.0 1.0 1 30
+ 6.115014 2 1 ack 40 ------- 2 5.0 1.0 1 30
- 6.115014 2 1 ack 40 ------- 2 5.0 1.0 1 30
r 6.115022 3 2 ack 40 ------- 2 5.0 1.0 2 31
+ 6.115022 2 1 ack 40 ------- 2 5.0 1.0 2 31
- 6.115022 2 1 ack 40 ------- 2 5.0 1.0 2 31
r 6.11503 3 2 ack 40 ------- 2 5.0 1.0 3 32
+ 6.11503 2 1 ack 40 ------- 2 5.0 1.0 3 32
- 6.11503 2 1 ack 40 ------- 2 5.0 1.0 3 32
r 6.115039 3 2 ack 40 ------- 2 5.0 1.0 4 33
+ 6.115039 2 1 ack 40 ------- 2 5.0 1.0 4 33
- 6.115039 2 1 ack 40 ------- 2 5.0 1.0 4 33
r 6.480001 2 1 ack 40 ------- 2 5.0 1.0 1 29
r 6.487026 4 3 ack 40 ------- 1 4.0 0.0 6 34
+ 6.487026 3 2 ack 40 ------- 1 4.0 0.0 6 34
- 6.487026 3 2 ack 40 ------- 1 4.0 0.0 6 34
r 6.487035 4 3 ack 40 ------- 1 4.0 0.0 7 35
+ 6.487035 3 2 ack 40 ------- 1 4.0 0.0 7 35
- 6.487035 3 2 ack 40 ------- 1 4.0 0.0 7 35
r 6.487043 4 3 ack 40 ------- 1 4.0 0.0 8 36
+ 6.487043 3 2 ack 40 ------- 1 4.0 0.0 8 36
- 6.487043 3 2 ack 40 ------- 1 4.0 0.0 8 36
r 6.487051 4 3 ack 40 ------- 1 4.0 0.0 9 37
+ 6.487051 3 2 ack 40 ------- 1 4.0 0.0 9 37
- 6.487051 3 2 ack 40 ------- 1 4.0 0.0 9 37
r 6.48706 4 3 ack 40 ------- 1 4.0 0.0 10 38
+ 6.48706 3 2 ack 40 ------- 1 4.0 0.0 10 38
- 6.48706 3 2 ack 40 ------- 1 4.0 0.0 10 38
r 6.487068 4 3 ack 40 ------- 1 4.0 0.0 11 39
+ 6.487068 3 2 ack 40 ------- 1 4.0 0.0 11 39
- 6.487068 3 2 ack 40 ------- 1 4.0 0.0 11 39
r 6.487076 4 3 ack 40 ------- 1 4.0 0.0 12 40
+ 6.487076 3 2 ack 40 ------- 1 4.0 0.0 12 40
- 6.487076 3 2 ack 40 ------- 1 4.0 0.0 12 40
r 6.487085 4 3 ack 40 ------- 1 4.0 0.0 13 41
+ 6.487085 3 2 ack 40 ------- 1 4.0 0.0 13 41
- 6.487085 3 2 ack 40 ------- 1 4.0 0.0 13 41
r 6.537027 3 2 ack 40 ------- 1 4.0 0.0 6 34
+ 6.537027 2 0 ack 40 ------- 1 4.0 0.0 6 34
- 6.537027 2 0 ack 40 ------- 1 4.0 0.0 6 34
r 6.537035 3 2 ack 40 ------- 1 4.0 0.0 7 35
+ 6.537035 2 0 ack 40 ------- 1 4.0 0.0 7 35
- 6.537035 2 0 ack 40 ------- 1 4.0 0.0 7 35
r 6.537043 3 2 ack 40 ------- 1 4.0 0.0 8 36
+ 6.537043 2 0 ack 40 ------- 1 4.0 0.0 8 36
- 6.537043 2 0 ack 40 ------- 1 4.0 0.0 8 36
r 6.537052 3 2 ack 40 ------- 1 4.0 0.0 9 37
+ 6.537052 2 0 ack 40 ------- 1 4.0 0.0 9 37
- 6.537052 2 0 ack 40 ------- 1 4.0 0.0 9 37
r 6.53706 3 2 ack 40 ------- 1 4.0 0.0 10 38
+ 6.53706 2 0 ack 40 ------- 1 4.0 0.0 10 38
- 6.53706 2 0 ack 40 ------- 1 4.0 0.0 10 38
r 6.537068 3 2 ack 40 ------- 1 4.0 0.0 11 39
+ 6.537068 2 0 ack 40 ------- 1 4.0 0.0 11 39
- 6.537068 2 0 ack 40 ------- 1 4.0 0.0 11 39
r 6.537077 3 2 ack 40 ------- 1 4.0 0.0 12 40
+ 6.537077 2 0 ack 40 ------- 1 4.0 0.0 12 40
- 6.537077 2 0 ack 40 ------- 1 4.0 0.0 12 40
r 6.537085 3 2 ack 40 ------- 1 4.0 0.0 13 41
+ 6.537085 2 0 ack 40 ------- 1 4.0 0.0 13 41
- 6.537085 2 0 ack 40 ------- 1 4.0 0.0 13 41
r 6.960014 2 1 ack 40 ------- 2 5.0 1.0 1 30
r 6.960022 2 1 ack 40 ------- 2 5.0 1.0 2 31
6.96002  1  0  5  0  ack_ 2
6.96002  1  0  5  0  rtt_ 3.480 
+ 6.960022 1 2 tcp 1040 ------- 2 1.0 5.0 5 42
- 6.960022 1 2 tcp 1040 ------- 2 1.0 5.0 5 42
6.96002  1  0  5  0  maxseq_ 5
r 6.960031 2 1 ack 40 ------- 2 5.0 1.0 3 32
6.96003  1  0  5  0  ack_ 3
+ 6.960031 1 2 tcp 1040 ------- 2 1.0 5.0 6 43
- 6.960031 1 2 tcp 1040 ------- 2 1.0 5.0 6 43
6.96003  1  0  5  0  maxseq_ 6
r 6.960039 2 1 ack 40 ------- 2 5.0 1.0 4 33
6.96004  1  0  5  0  ack_ 4
+ 6.960039 1 2 tcp 1040 ------- 2 1.0 5.0 7 44
- 6.960039 1 2 tcp 1040 ------- 2 1.0 5.0 7 44
6.96004  1  0  5  0  maxseq_ 7
r 7.104027 2 0 ack 40 ------- 1 4.0 0.0 6 34
7.10403  0  0  4  0  ack_ 6
7.10403  0  0  4  0  cwnd_ 9.000 
+ 7.104027 0 2 tcp 1040 ------- 1 0.0 4.0 14 45
- 7.104027 0 2 tcp 1040 ------- 1 0.0 4.0 14 45
7.10403  0  0  4  0  maxseq_ 14
+ 7.104027 0 2 tcp 1040 ------- 1 0.0 4.0 15 46
7.10403  0  0  4  0  maxseq_ 15
- 7.104029 0 2 tcp 1040 ------- 1 0.0 4.0 15 46
r 7.104035 2 0 ack 40 ------- 1 4.0 0.0 7 35
7.10404  0  0  4  0  ack_ 7
7.10404  0  0  4  0  cwnd_ 10.000
+ 7.104035 0 2 tcp 1040 ------- 1 0.0 4.0 16 47
- 7.104035 0 2 tcp 1040 ------- 1 0.0 4.0 16 47
7.10404  0  0  4  0  maxseq_ 16
+ 7.104035 0 2 tcp 1040 ------- 1 0.0 4.0 17 48
7.10404  0  0  4  0  maxseq_ 17
- 7.104037 0 2 tcp 1040 ------- 1 0.0 4.0 17 48
r 7.104044 2 0 ack 40 ------- 1 4.0 0.0 8 36
7.10404  0  0  4  0  ack_ 8
7.10404  0  0  4  0  cwnd_ 11.000
+ 7.104044 0 2 tcp 1040 ------- 1 0.0 4.0 18 49
- 7.104044 0 2 tcp 1040 ------- 1 0.0 4.0 18 49
7.10404  0  0  4  0  maxseq_ 18
+ 7.104044 0 2 tcp 1040 ------- 1 0.0 4.0 19 50
7.10404  0  0  4  0  maxseq_ 19
- 7.104046 0 2 tcp 1040 ------- 1 0.0 4.0 19 50
r 7.104052 2 0 ack 40 ------- 1 4.0 0.0 9 37
7.10405  0  0  4  0  ack_ 9
7.10405  0  0  4  0  cwnd_ 12.000
+ 7.104052 0 2 tcp 1040 ------- 1 0.0 4.0 20 51
- 7.104052 0 2 tcp 1040 ------- 1 0.0 4.0 20 51
7.10405  0  0  4  0  maxseq_ 20
+ 7.104052 0 2 tcp 1040 ------- 1 0.0 4.0 21 52
7.10405  0  0  4  0  maxseq_ 21
- 7.104054 0 2 tcp 1040 ------- 1 0.0 4.0 21 52
r 7.10406 2 0 ack 40 ------- 1 4.0 0.0 10 38
7.10406  0  0  4  0  ack_ 10
7.10406  0  0  4  0  cwnd_ 13.000
+ 7.10406 0 2 tcp 1040 ------- 1 0.0 4.0 22 53
- 7.10406 0 2 tcp 1040 ------- 1 0.0 4.0 22 53
7.10406  0  0  4  0  maxseq_ 22
+ 7.10406 0 2 tcp 1040 ------- 1 0.0 4.0 23 54
7.10406  0  0  4  0  maxseq_ 23
- 7.104062 0 2 tcp 1040 ------- 1 0.0 4.0 23 54
r 7.104068 2 0 ack 40 ------- 1 4.0 0.0 11 39
7.10407  0  0  4  0  ack_ 11
7.10407  0  0  4  0  cwnd_ 14.000
+ 7.104068 0 2 tcp 1040 ------- 1 0.0 4.0 24 55
- 7.104068 0 2 tcp 1040 ------- 1 0.0 4.0 24 55
7.10407  0  0  4  0  maxseq_ 24
+ 7.104068 0 2 tcp 1040 ------- 1 0.0 4.0 25 56
7.10407  0  0  4  0  maxseq_ 25
- 7.104071 0 2 tcp 1040 ------- 1 0.0 4.0 25 56
r 7.104077 2 0 ack 40 ------- 1 4.0 0.0 12 40
7.10408  0  0  4  0  ack_ 12
7.10408  0  0  4  0  cwnd_ 15.000
+ 7.104077 0 2 tcp 1040 ------- 1 0.0 4.0 26 57
- 7.104077 0 2 tcp 1040 ------- 1 0.0 4.0 26 57
7.10408  0  0  4  0  maxseq_ 26
+ 7.104077 0 2 tcp 1040 ------- 1 0.0 4.0 27 58
7.10408  0  0  4  0  maxseq_ 27
- 7.104079 0 2 tcp 1040 ------- 1 0.0 4.0 27 58
r 7.104085 2 0 ack 40 ------- 1 4.0 0.0 13 41
7.10409  0  0  4  0  ack_ 13
7.10409  0  0  4  0  cwnd_ 16.000
+ 7.104085 0 2 tcp 1040 ------- 1 0.0 4.0 28 59
- 7.104085 0 2 tcp 1040 ------- 1 0.0 4.0 28 59
7.10409  0  0  4  0  maxseq_ 28
+ 7.104085 0 2 tcp 1040 ------- 1 0.0 4.0 29 60
7.10409  0  0  4  0  maxseq_ 29
- 7.104087 0 2 tcp 1040 ------- 1 0.0 4.0 29 60
r 7.671029 0 2 tcp 1040 ------- 1 0.0 4.0 14 45
+ 7.671029 2 3 tcp 1040 ------- 1 0.0 4.0 14 45
- 7.671029 2 3 tcp 1040 ------- 1 0.0 4.0 14 45
r 7.671031 0 2 tcp 1040 ------- 1 0.0 4.0 15 46
+ 7.671031 2 3 tcp 1040 ------- 1 0.0 4.0 15 46
r 7.671037 0 2 tcp 1040 ------- 1 0.0 4.0 16 47
+ 7.671037 2 3 tcp 1040 ------- 1 0.0 4.0 16 47
- 7.671037 2 3 tcp 1040 ------- 1 0.0 4.0 15 46
r 7.671039 0 2 tcp 1040 ------- 1 0.0 4.0 17 48
+ 7.671039 2 3 tcp 1040 ------- 1 0.0 4.0 17 48
r 7.671046 0 2 tcp 1040 ------- 1 0.0 4.0 18 49
+ 7.671046 2 3 tcp 1040 ------- 1 0.0 4.0 18 49
- 7.671046 2 3 tcp 1040 ------- 1 0.0 4.0 16 47
r 7.671048 0 2 tcp 1040 ------- 1 0.0 4.0 19 50
+ 7.671048 2 3 tcp 1040 ------- 1 0.0 4.0 19 50
r 7.671054 0 2 tcp 1040 ------- 1 0.0 4.0 20 51
+ 7.671054 2 3 tcp 1040 ------- 1 0.0 4.0 20 51
- 7.671054 2 3 tcp 1040 ------- 1 0.0 4.0 17 48
r 7.671056 0 2 tcp 1040 ------- 1 0.0 4.0 21 52
+ 7.671056 2 3 tcp 1040 ------- 1 0.0 4.0 21 52
r 7.671062 0 2 tcp 1040 ------- 1 0.0 4.0 22 53
+ 7.671062 2 3 tcp 1040 ------- 1 0.0 4.0 22 53
- 7.671062 2 3 tcp 1040 ------- 1 0.0 4.0 18 49
r 7.671064 0 2 tcp 1040 ------- 1 0.0 4.0 23 54
+ 7.671064 2 3 tcp 1040 ------- 1 0.0 4.0 23 54
r 7.671071 0 2 tcp 1040 ------- 1 0.0 4.0 24 55
+ 7.671071 2 3 tcp 1040 ------- 1 0.0 4.0 24 55
- 7.671071 2 3 tcp 1040 ------- 1 0.0 4.0 19 50
r 7.671073 0 2 tcp 1040 ------- 1 0.0 4.0 25 56
+ 7.671073 2 3 tcp 1040 ------- 1 0.0 4.0 25 56
r 7.671079 0 2 tcp 1040 ------- 1 0.0 4.0 26 57
+ 7.671079 2 3 tcp 1040 ------- 1 0.0 4.0 26 57
- 7.671079 2 3 tcp 1040 ------- 1 0.0 4.0 20 51
r 7.671081 0 2 tcp 1040 ------- 1 0.0 4.0 27 58
+ 7.671081 2 3 tcp 1040 ------- 1 0.0 4.0 27 58
r 7.671087 0 2 tcp 1040 ------- 1 0.0 4.0 28 59
+ 7.671087 2 3 tcp 1040 ------- 1 0.0 4.0 28 59
- 7.671087 2 3 tcp 1040 ------- 1 0.0 4.0 21 52
r 7.671089 0 2 tcp 1040 ------- 1 0.0 4.0 29 60
+ 7.671089 2 3 tcp 1040 ------- 1 0.0 4.0 29 60
- 7.671096 2 3 tcp 1040 ------- 1 0.0 4.0 22 53
- 7.671104 2 3 tcp 1040 ------- 1 0.0 4.0 23 54
- 7.671112 2 3 tcp 1040 ------- 1 0.0 4.0 24 55
- 7.67112 2 3 tcp 1040 ------- 1 0.0 4.0 25 56
- 7.671129 2 3 tcp 1040 ------- 1 0.0 4.0 26 57
- 7.671137 2 3 tcp 1040 ------- 1 0.0 4.0 27 58
- 7.671145 2 3 tcp 1040 ------- 1 0.0 4.0 28 59
- 7.671154 2 3 tcp 1040 ------- 1 0.0 4.0 29 60
r 7.721037 2 3 tcp 1040 ------- 1 0.0 4.0 14 45
+ 7.721037 3 4 tcp 1040 ------- 1 0.0 4.0 14 45
- 7.721037 3 4 tcp 1040 ------- 1 0.0 4.0 14 45
r 7.721046 2 3 tcp 1040 ------- 1 0.0 4.0 15 46
+ 7.721046 3 4 tcp 1040 ------- 1 0.0 4.0 15 46
- 7.721046 3 4 tcp 1040 ------- 1 0.0 4.0 15 46
r 7.721054 2 3 tcp 1040 ------- 1 0.0 4.0 16 47
+ 7.721054 3 4 tcp 1040 ------- 1 0.0 4.0 16 47
- 7.721054 3 4 tcp 1040 ------- 1 0.0 4.0 16 47
r 7.721062 2 3 tcp 1040 ------- 1 0.0 4.0 17 48
+ 7.721062 3 4 tcp 1040 ------- 1 0.0 4.0 17 48
- 7.721062 3 4 tcp 1040 ------- 1 0.0 4.0 17 48
r 7.721071 2 3 tcp 1040 ------- 1 0.0 4.0 18 49
+ 7.721071 3 4 tcp 1040 ------- 1 0.0 4.0 18 49
- 7.721071 3 4 tcp 1040 ------- 1 0.0 4.0 18 49
r 7.721079 2 3 tcp 1040 ------- 1 0.0 4.0 19 50
+ 7.721079 3 4 tcp 1040 ------- 1 0.0 4.0 19 50
- 7.721079 3 4 tcp 1040 ------- 1 0.0 4.0 19 50
r 7.721087 2 3 tcp 1040 ------- 1 0.0 4.0 20 51
+ 7.721087 3 4 tcp 1040 ------- 1 0.0 4.0 20 51
- 7.721087 3 4 tcp 1040 ------- 1 0.0 4.0 20 51
r 7.721096 2 3 tcp 1040 ------- 1 0.0 4.0 21 52
+ 7.721096 3 4 tcp 1040 ------- 1 0.0 4.0 21 52
- 7.721096 3 4 tcp 1040 ------- 1 0.0 4.0 21 52
r 7.721104 2 3 tcp 1040 ------- 1 0.0 4.0 22 53
+ 7.721104 3 4 tcp 1040 ------- 1 0.0 4.0 22 53
- 7.721104 3 4 tcp 1040 ------- 1 0.0 4.0 22 53
r 7.721112 2 3 tcp 1040 ------- 1 0.0 4.0 23 54
+ 7.721112 3 4 tcp 1040 ------- 1 0.0 4.0 23 54
- 7.721112 3 4 tcp 1040 ------- 1 0.0 4.0 23 54
r 7.72112 2 3 tcp 1040 ------- 1 0.0 4.0 24 55
+ 7.72112 3 4 tcp 1040 ------- 1 0.0 4.0 24 55
- 7.72112 3 4 tcp 1040 ------- 1 0.0 4.0 24 55
r 7.721129 2 3 tcp 1040 ------- 1 0.0 4.0 25 56
+ 7.721129 3 4 tcp 1040 ------- 1 0.0 4.0 25 56
- 7.721129 3 4 tcp 1040 ------- 1 0.0 4.0 25 56
r 7.721137 2 3 tcp 1040 ------- 1 0.0 4.0 26 57
+ 7.721137 3 4 tcp 1040 ------- 1 0.0 4.0 26 57
- 7.721137 3 4 tcp 1040 ------- 1 0.0 4.0 26 57
r 7.721145 2 3 tcp 1040 ------- 1 0.0 4.0 27 58
+ 7.721145 3 4 tcp 1040 ------- 1 0.0 4.0 27 58
- 7.721145 3 4 tcp 1040 ------- 1 0.0 4.0 27 58
r 7.721154 2 3 tcp 1040 ------- 1 0.0 4.0 28 59
+ 7.721154 3 4 tcp 1040 ------- 1 0.0 4.0 28 59
- 7.721154 3 4 tcp 1040 ------- 1 0.0 4.0 28 59
r 7.721162 2 3 tcp 1040 ------- 1 0.0 4.0 29 60
+ 7.721162 3 4 tcp 1040 ------- 1 0.0 4.0 29 60
- 7.721162 3 4 tcp 1040 ------- 1 0.0 4.0 29 60
r 7.805024 1 2 tcp 1040 ------- 2 1.0 5.0 5 42
+ 7.805024 2 3 tcp 1040 ------- 2 1.0 5.0 5 42
- 7.805024 2 3 tcp 1040 ------- 2 1.0 5.0 5 42
r 7.805033 1 2 tcp 1040 ------- 2 1.0 5.0 6 43
+ 7.805033 2 3 tcp 1040 ------- 2 1.0 5.0 6 43
- 7.805033 2 3 tcp 1040 ------- 2 1.0 5.0 6 43
r 7.805041 1 2 tcp 1040 ------- 2 1.0 5.0 7 44
+ 7.805041 2 3 tcp 1040 ------- 2 1.0 5.0 7 44
- 7.805041 2 3 tcp 1040 ------- 2 1.0 5.0 7 44
r 7.855033 2 3 tcp 1040 ------- 2 1.0 5.0 5 42
+ 7.855033 3 5 tcp 1040 ------- 2 1.0 5.0 5 42
- 7.855033 3 5 tcp 1040 ------- 2 1.0 5.0 5 42
r 7.855041 2 3 tcp 1040 ------- 2 1.0 5.0 6 43
+ 7.855041 3 5 tcp 1040 ------- 2 1.0 5.0 6 43
- 7.855041 3 5 tcp 1040 ------- 2 1.0 5.0 6 43
r 7.855049 2 3 tcp 1040 ------- 2 1.0 5.0 7 44
+ 7.855049 3 5 tcp 1040 ------- 2 1.0 5.0 7 44
- 7.855049 3 5 tcp 1040 ------- 2 1.0 5.0 7 44
r 8.288039 3 4 tcp 1040 ------- 1 0.0 4.0 14 45
+ 8.288039 4 3 ack 40 ------- 1 4.0 0.0 14 61
- 8.288039 4 3 ack 40 ------- 1 4.0 0.0 14 61
r 8.288048 3 4 tcp 1040 ------- 1 0.0 4.0 15 46
+ 8.288048 4 3 ack 40 ------- 1 4.0 0.0 15 62
- 8.288048 4 3 ack 40 ------- 1 4.0 0.0 15 62
r 8.288056 3 4 tcp 1040 ------- 1 0.0 4.0 16 47
+ 8.288056 4 3 ack 40 ------- 1 4.0 0.0 16 63
- 8.288056 4 3 ack 40 ------- 1 4.0 0.0 16 63
r 8.288064 3 4 tcp 1040 ------- 1 0.0 4.0 17 48
+ 8.288064 4 3 ack 40 ------- 1 4.0 0.0 17 64
- 8.288064 4 3 ack 40 ------- 1 4.0 0.0 17 64
r 8.288073 3 4 tcp 1040 ------- 1 0.0 4.0 18 49
+ 8.288073 4 3 ack 40 ------- 1 4.0 0.0 18 65
- 8.288073 4 3 ack 40 ------- 1 4.0 0.0 18 65
r 8.288081 3 4 tcp 1040 ------- 1 0.0 4.0 19 50
+ 8.288081 4 3 ack 40 ------- 1 4.0 0.0 19 66
- 8.288081 4 3 ack 40 ------- 1 4.0 0.0 19 66
r 8.288089 3 4 tcp 1040 ------- 1 0.0 4.0 20 51
+ 8.288089 4 3 ack 40 ------- 1 4.0 0.0 20 67
- 8.288089 4 3 ack 40 ------- 1 4.0 0.0 20 67
r 8.288098 3 4 tcp 1040 ------- 1 0.0 4.0 21 52
+ 8.288098 4 3 ack 40 ------- 1 4.0 0.0 21 68
- 8.288098 4 3 ack 40 ------- 1 4.0 0.0 21 68
r 8.288106 3 4 tcp 1040 ------- 1 0.0 4.0 22 53
+ 8.288106 4 3 ack 40 ------- 1 4.0 0.0 22 69
- 8.288106 4 3 ack 40 ------- 1 4.0 0.0 22 69
r 8.288114 3 4 tcp 1040 ------- 1 0.0 4.0 23 54
+ 8.288114 4 3 ack 40 ------- 1 4.0 0.0 23 70
- 8.288114 4 3 ack 40 ------- 1 4.0 0.0 23 70
r 8.288123 3 4 tcp 1040 ------- 1 0.0 4.0 24 55
+ 8.288123 4 3 ack 40 ------- 1 4.0 0.0 24 71
- 8.288123 4 3 ack 40 ------- 1 4.0 0.0 24 71
r 8.288131 3 4 tcp 1040 ------- 1 0.0 4.0 25 56
+ 8.288131 4 3 ack 40 ------- 1 4.0 0.0 25 72
- 8.288131 4 3 ack 40 ------- 1 4.0 0.0 25 72
r 8.288139 3 4 tcp 1040 ------- 1 0.0 4.0 26 57
+ 8.288139 4 3 ack 40 ------- 1 4.0 0.0 26 73
- 8.288139 4 3 ack 40 ------- 1 4.0 0.0 26 73
r 8.288148 3 4 tcp 1040 ------- 1 0.0 4.0 27 58
+ 8.288148 4 3 ack 40 ------- 1 4.0 0.0 27 74
- 8.288148 4 3 ack 40 ------- 1 4.0 0.0 27 74
r 8.288156 3 4 tcp 1040 ------- 1 0.0 4.0 28 59
+ 8.288156 4 3 ack 40 ------- 1 4.0 0.0 28 75
- 8.288156 4 3 ack 40 ------- 1 4.0 0.0 28 75
r 8.288164 3 4 tcp 1040 ------- 1 0.0 4.0 29 60
+ 8.288164 4 3 ack 40 ------- 1 4.0 0.0 29 76
- 8.288164 4 3 ack 40 ------- 1 4.0 0.0 29 76
r 8.700035 3 5 tcp 1040 ------- 2 1.0 5.0 5 42
+ 8.700035 5 3 ack 40 ------- 2 5.0 1.0 5 77
- 8.700035 5 3 ack 40 ------- 2 5.0 1.0 5 77
r 8.700043 3 5 tcp 1040 ------- 2 1.0 5.0 6 43
+ 8.700043 5 3 ack 40 ------- 2 5.0 1.0 6 78
- 8.700043 5 3 ack 40 ------- 2 5.0 1.0 6 78
r 8.700051 3 5 tcp 1040 ------- 2 1.0 5.0 7 44
+ 8.700051 5 3 ack 40 ------- 2 5.0 1.0 7 79
- 8.700051 5 3 ack 40 ------- 2 5.0 1.0 7 79
r 8.855039 4 3 ack 40 ------- 1 4.0 0.0 14 61
+ 8.855039 3 2 ack 40 ------- 1 4.0 0.0 14 61
- 8.855039 3 2 ack 40 ------- 1 4.0 0.0 14 61