0.00000  0  0  4  0  cwnd_ 1.000 
0.00000  0  0  4  0  ssthresh_ 20
0.00000  0  0  4  0  ack_ -1
0.00000  0  0  4  0  maxseq_ -1
0.00000  0  0  4  0  rtt_ 0.000 
0.00000  1  0  5  0  cwnd_ 1.000 
0.00000  1  0  5  0  ssthresh_ 20
0.00000  1  0  5  0  ack_ -1
0.00000  1  0  5  0  maxseq_ -1
0.00000  1  0  5  0  rtt_ 0.000 
0.00000  0  0  4  0  ssthresh_ 1000
0.00000  1  0  5  0  ssthresh_ 1000
+ 0 1 2 tcp 40 ------- 2 1.0 5.0 0 0
- 0 1 2 tcp 40 ------- 2 1.0 5.0 0 0
0.00000  1  0  5  0  maxseq_ 0
+ 0 0 2 tcp 40 ------- 1 0.0 4.0 0 1
- 0 0 2 tcp 40 ------- 1 0.0 4.0 0 1
0.00000  0  0  4  0  maxseq_ 0
r 0.578 0 2 tcp 40 ------- 1 0.0 4.0 0 1
+ 0.578 2 3 tcp 40 ------- 1 0.0 4.0 0 1
- 0.578 2 3 tcp 40 ------- 1 0.0 4.0 0 1
r 0.628 2 3 tcp 40 ------- 1 0.0 4.0 0 1
+ 0.628 3 4 tcp 40 ------- 1 0.0 4.0 0 1
- 0.628 3 4 tcp 40 ------- 1 0.0 4.0 0 1
r 0.856 1 2 tcp 40 ------- 2 1.0 5.0 0 0
+ 0.856 2 3 tcp 40 ------- 2 1.0 5.0 0 0
- 0.856 2 3 tcp 40 ------- 2 1.0 5.0 0 0
r 0.906 2 3 tcp 40 ------- 2 1.0 5.0 0 0
+ 0.906 3 5 tcp 40 ------- 2 1.0 5.0 0 0
- 0.906 3 5 tcp 40 ------- 2 1.0 5.0 0 0
r 1.206 3 4 tcp 40 ------- 1 0.0 4.0 0 1
+ 1.206 4 3 ack 40 ------- 1 4.0 0.0 0 2
- 1.206 4 3 ack 40 ------- 1 4.0 0.0 0 2
r 1.762 3 5 tcp 40 ------- 2 1.0 5.0 0 0
+ 1.762 5 3 ack 40 ------- 2 5.0 1.0 0 3
- 1.762 5 3 ack 40 ------- 2 5.0 1.0 0 3
r 1.784001 4 3 ack 40 ------- 1 4.0 0.0 0 2
+ 1.784001 3 2 ack 40 ------- 1 4.0 0.0 0 2
- 1.784001 3 2 ack 40 ------- 1 4.0 0.0 0 2
r 1.834001 3 2 ack 40 ------- 1 4.0 0.0 0 2
+ 1.834001 2 0 ack 40 ------- 1 4.0 0.0 0 2
- 1.834001 2 0 ack 40 ------- 1 4.0 0.0 0 2
r 2.412001 2 0 ack 40 ------- 1 4.0 0.0 0 2
2.41200  0  0  4  0  ack_ 0
2.41200  0  0  4  0  rtt_ 2.410 
2.41200  0  0  4  0  cwnd_ 2.000 
+ 2.412001 0 2 tcp 1040 ------- 1 0.0 4.0 1 4
- 2.412001 0 2 tcp 1040 ------- 1 0.0 4.0 1 4
2.41200  0  0  4  0  maxseq_ 1
+ 2.412001 0 2 tcp 1040 ------- 1 0.0 4.0 2 5
2.41200  0  0  4  0  maxseq_ 2
- 2.412003 0 2 tcp 1040 ------- 1 0.0 4.0 2 5
r 2.618001 5 3 ack 40 ------- 2 5.0 1.0 0 3
+ 2.618001 3 2 ack 40 ------- 2 5.0 1.0 0 3
- 2.618001 3 2 ack 40 ------- 2 5.0 1.0 0 3
r 2.668001 3 2 ack 40 ------- 2 5.0 1.0 0 3
+ 2.668001 2 1 ack 40 ------- 2 5.0 1.0 0 3
- 2.668001 2 1 ack 40 ------- 2 5.0 1.0 0 3
r 2.990003 0 2 tcp 1040 ------- 1 0.0 4.0 1 4
+ 2.990003 2 3 tcp 1040 ------- 1 0.0 4.0 1 4
- 2.990003 2 3 tcp 1040 ------- 1 0.0 4.0 1 4
r 2.990005 0 2 tcp 1040 ------- 1 0.0 4.0 2 5
+ 2.990005 2 3 tcp 1040 ------- 1 0.0 4.0 2 5
- 2.990011 2 3 tcp 1040 ------- 1 0.0 4.0 2 5
3.00000  1  0  5  0  ssthresh_ 0
3.00000  1  0  5  0  ssthresh_ 2
+ 3 1 2 tcp 40 ---A--- 2 1.0 5.0 0 6
- 3 1 2 tcp 40 ---A--- 2 1.0 5.0 0 6
r 3.040011 2 3 tcp 1040 ------- 1 0.0 4.0 1 4
+ 3.040011 3 4 tcp 1040 ------- 1 0.0 4.0 1 4
- 3.040011 3 4 tcp 1040 ------- 1 0.0 4.0 1 4
r 3.04002 2 3 tcp 1040 ------- 1 0.0 4.0 2 5
+ 3.04002 3 4 tcp 1040 ------- 1 0.0 4.0 2 5
- 3.04002 3 4 tcp 1040 ------- 1 0.0 4.0 2 5
r 3.524001 2 1 ack 40 ------- 2 5.0 1.0 0 3
3.52400  1  0  5  0  ack_ 0
3.52400  1  0  5  0  cwnd_ 2.000 
3.52400  1  0  5  0  cwnd_ 1.000 
+ 3.524001 1 2 tcp 1040 ------- 2 1.0 5.0 1 7
- 3.524001 1 2 tcp 1040 ------- 2 1.0 5.0 1 7
3.52400  1  0  5  0  maxseq_ 1
r 3.618013 3 4 tcp 1040 ------- 1 0.0 4.0 1 4
+ 3.618013 4 3 ack 40 ------- 1 4.0 0.0 1 8
- 3.618013 4 3 ack 40 ------- 1 4.0 0.0 1 8
r 3.618022 3 4 tcp 1040 ------- 1 0.0 4.0 2 5
+ 3.618022 4 3 ack 40 ------- 1 4.0 0.0 2 9
- 3.618022 4 3 ack 40 ------- 1 4.0 0.0 2 9
r 3.856 1 2 tcp 40 ---A--- 2 1.0 5.0 0 6
+ 3.856 2 3 tcp 40 ---A--- 2 1.0 5.0 0 6
- 3.856 2 3 tcp 40 ---A--- 2 1.0 5.0 0 6
r 3.906 2 3 tcp 40 ---A--- 2 1.0 5.0 0 6
+ 3.906 3 5 tcp 40 ---A--- 2 1.0 5.0 0 6
- 3.906 3 5 tcp 40 ---A--- 2 1.0 5.0 0 6
r 4.196014 4 3 ack 40 ------- 1 4.0 0.0 1 8
+ 4.196014 3 2 ack 40 ------- 1 4.0 0.0 1 8
- 4.196014 3 2 ack 40 ------- 1 4.0 0.0 1 8
r 4.196022 4 3 ack 40 ------- 1 4.0 0.0 2 9
+ 4.196022 3 2 ack 40 ------- 1 4.0 0.0 2 9
- 4.196022 3 2 ack 40 ------- 1 4.0 0.0 2 9
r 4.246014 3 2 ack 40 ------- 1 4.0 0.0 1 8
+ 4.246014 2 0 ack 40 ------- 1 4.0 0.0 1 8
- 4.246014 2 0 ack 40 ------- 1 4.0 0.0 1 8
r 4.246022 3 2 ack 40 ------- 1 4.0 0.0 2 9
+ 4.246022 2 0 ack 40 ------- 1 4.0 0.0 2 9
- 4.246022 2 0 ack 40 ------- 1 4.0 0.0 2 9
r 4.380003 1 2 tcp 1040 ------- 2 1.0 5.0 1 7
+ 4.380003 2 3 tcp 1040 ------- 2 1.0 5.0 1 7
- 4.380003 2 3 tcp 1040 ------- 2 1.0 5.0 1 7
r 4.430011 2 3 tcp 1040 ------- 2 1.0 5.0 1 7
+ 4.430011 3 5 tcp 1040 ------- 2 1.0 5.0 1 7
- 4.430011 3 5 tcp 1040 ------- 2 1.0 5.0 1 7
r 4.762 3 5 tcp 40 ---A--- 2 1.0 5.0 0 6
+ 4.762 5 3 ack 40 ------- 2 5.0 1.0 0 10
- 4.762 5 3 ack 40 ------- 2 5.0 1.0 0 10
r 4.824014 2 0 ack 40 ------- 1 4.0 0.0 1 8
4.82401  0  0  4  0  ack_ 1
4.82401  0  0  4  0  rtt_ 2.420 
4.82401  0  0  4  0  cwnd_ 3.000 
+ 4.824014 0 2 tcp 1040 ------- 1 0.0 4.0 3 11
- 4.824014 0 2 tcp 1040 ------- 1 0.0 4.0 3 11
4.82401  0  0  4  0  maxseq_ 3
+ 4.824014 0 2 tcp 1040 ------- 1 0.0 4.0 4 12
4.82401  0  0  4  0  maxseq_ 4
- 4.824016 0 2 tcp 1040 ------- 1 0.0 4.0 4 12
r 4.824022 2 0 ack 40 ------- 1 4.0 0.0 2 9
4.82402  0  0  4  0  ack_ 2
4.82402  0  0  4  0  cwnd_ 4.000 
+ 4.824022 0 2 tcp 1040 ------- 1 0.0 4.0 5 13
- 4.824022 0 2 tcp 1040 ------- 1 0.0 4.0 5 13
4.82402  0  0  4  0  maxseq_ 5
+ 4.824022 0 2 tcp 1040 ------- 1 0.0 4.0 6 14
4.82402  0  0  4  0  maxseq_ 6
- 4.824024 0 2 tcp 1040 ------- 1 0.0 4.0 6 14
r 5.286013 3 5 tcp 1040 ------- 2 1.0 5.0 1 7
+ 5.286013 5 3 ack 40 ------- 2 5.0 1.0 1 15
- 5.286013 5 3 ack 40 ------- 2 5.0 1.0 1 15
r 5.402016 0 2 tcp 1040 ------- 1 0.0 4.0 3 11
+ 5.402016 2 3 tcp 1040 ------- 1 0.0 4.0 3 11
- 5.402016 2 3 tcp 1040 ------- 1 0.0 4.0 3 11
r 5.402018 0 2 tcp 1040 ------- 1 0.0 4.0 4 12
+ 5.402018 2 3 tcp 1040 ------- 1 0.0 4.0 4 12
r 5.402024 0 2 tcp 1040 ------- 1 0.0 4.0 5 13
+ 5.402024 2 3 tcp 1040 ------- 1 0.0 4.0 5 13
- 5.402024 2 3 tcp 1040 ------- 1 0.0 4.0 4 12
r 5.402026 0 2 tcp 1040 ------- 1 0.0 4.0 6 14
+ 5.402026 2 3 tcp 1040 ------- 1 0.0 4.0 6 14
- 5.402033 2 3 tcp 1040 ------- 1 0.0 4.0 5 13
- 5.402041 2 3 tcp 1040 ------- 1 0.0 4.0 6 14
r 5.452024 2 3 tcp 1040 ------- 1 0.0 4.0 3 11
+ 5.452024 3 4 tcp 1040 ------- 1 0.0 4.0 3 11
- 5.452024 3 4 tcp 1040 ------- 1 0.0 4.0 3 11
r 5.452033 2 3 tcp 1040 ------- 1 0.0 4.0 4 12
+ 5.452033 3 4 tcp 1040 ------- 1 0.0 4.0 4 12
- 5.452033 3 4 tcp 1040 ------- 1 0.0 4.0 4 12
r 5.452041 2 3 tcp 1040 ------- 1 0.0 4.0 5 13
+ 5.452041 3 4 tcp 1040 ------- 1 0.0 4.0 5 13
- 5.452041 3 4 tcp 1040 ------- 1 0.0 4.0 5 13
r 5.452049 2 3 tcp 1040 ------- 1 0.0 4.0 6 14
+ 5.452049 3 4 tcp 1040 ------- 1 0.0 4.0 6 14
- 5.452049 3 4 tcp 1040 ------- 1 0.0 4.0 6 14
r 5.618001 5 3 ack 40 ------- 2 5.0 1.0 0 10
+ 5.618001 3 2 ack 40 ------- 2 5.0 1.0 0 10
- 5.618001 3 2 ack 40 ------- 2 5.0 1.0 0 10
r 5.668001 3 2 ack 40 ------- 2 5.0 1.0 0 10
+ 5.668001 2 1 ack 40 ------- 2 5.0 1.0 0 10
- 5.668001 2 1 ack 40 ------- 2 5.0 1.0 0 10
r 6.030026 3 4 tcp 1040 ------- 1 0.0 4.0 3 11
+ 6.030026 4 3 ack 40 ------- 1 4.0 0.0 3 16
- 6.030026 4 3 ack 40 ------- 1 4.0 0.0 3 16
r 6.030035 3 4 tcp 1040 ------- 1 0.0 4.0 4 12
+ 6.030035 4 3 ack 40 ------- 1 4.0 0.0 4 17
- 6.030035 4 3 ack 40 ------- 1 4.0 0.0 4 17
r 6.030043 3 4 tcp 1040 ------- 1 0.0 4.0 5 13
+ 6.030043 4 3 ack 40 ------- 1 4.0 0.0 5 18
- 6.030043 4 3 ack 40 ------- 1 4.0 0.0 5 18
r 6.030051 3 4 tcp 1040 ------- 1 0.0 4.0 6 14
+ 6.030051 4 3 ack 40 ------- 1 4.0 0.0 6 19
- 6.030051 4 3 ack 40 ------- 1 4.0 0.0 6 19
r 6.142014 5 3 ack 40 ------- 2 5.0 1.0 1 15
+ 6.142014 3 2 ack 40 ------- 2 5.0 1.0 1 15
- 6.142014 3 2 ack 40 ------- 2 5.0 1.0 1 15
r 6.192014 3 2 ack 40 ------- 2 5.0 1.0 1 15
+ 6.192014 2 1 ack 40 ------- 2 5.0 1.0 1 15
- 6.192014 2 1 ack 40 ------- 2 5.0 1.0 1 15
r 6.524001 2 1 ack 40 ------- 2 5.0 1.0 0 10
+ 6.524001 1 2 tcp 1040 ------- 2 1.0 5.0 2 20
- 6.524001 1 2 tcp 1040 ------- 2 1.0 5.0 2 20
6.52400  1  0  5  0  maxseq_ 2
r 6.608026 4 3 ack 40 ------- 1 4.0 0.0 3 16
+ 6.608026 3 2 ack 40 ------- 1 4.0 0.0 3 16
- 6.608026 3 2 ack 40 ------- 1 4.0 0.0 3 16
r 6.608035 4 3 ack 40 ------- 1 4.0 0.0 4 17
+ 6.608035 3 2 ack 40 ------- 1 4.0 0.0 4 17
- 6.608035 3 2 ack 40 ------- 1 4.0 0.0 4 17
r 6.608043 4 3 ack 40 ------- 1 4.0 0.0 5 18
+ 6.608043 3 2 ack 40 ------- 1 4.0 0.0 5 18
- 6.608043 3 2 ack 40 ------- 1 4.0 0.0 5 18
r 6.608051 4 3 ack 40 ------- 1 4.0 0.0 6 19
+ 6.608051 3 2 ack 40 ------- 1 4.0 0.0 6 19
- 6.608051 3 2 ack 40 ------- 1 4.0 0.0 6 19
r 6.658027 3 2 ack 40 ------- 1 4.0 0.0 3 16
+ 6.658027 2 0 ack 40 ------- 1 4.0 0.0 3 16
- 6.658027 2 0 ack 40 ------- 1 4.0 0.0 3 16
r 6.658035 3 2 ack 40 ------- 1 4.0 0.0 4 17
+ 6.658035 2 0 ack 40 ------- 1 4.0 0.0 4 17
- 6.658035 2 0 ack 40 ------- 1 4.0 0.0 4 17
r 6.658043 3 2 ack 40 ------- 1 4.0 0.0 5 18
+ 6.658043 2 0 ack 40 ------- 1 4.0 0.0 5 18
- 6.658043 2 0 ack 40 ------- 1 4.0 0.0 5 18
r 6.658052 3 2 ack 40 ------- 1 4.0 0.0 6 19
+ 6.658052 2 0 ack 40 ------- 1 4.0 0.0 6 19
- 6.658052 2 0 ack 40 ------- 1 4.0 0.0 6 19
r 7.048014 2 1 ack 40 ------- 2 5.0 1.0 1 15
7.04801  1  0  5  0  ack_ 1
7.04801  1  0  5  0  rtt_ 3.520 
7.04801  1  0  5  0  cwnd_ 2.000 
+ 7.048014 1 2 tcp 1040 ------- 2 1.0 5.0 3 21
- 7.048014 1 2 tcp 1040 ------- 2 1.0 5.0 3 21
7.04801  1  0  5  0  maxseq_ 3
r 7.236027 2 0 ack 40 ------- 1 4.0 0.0 3 16
7.23603  0  0  4  0  ack_ 3
7.23603  0  0  4  0  rtt_ 2.410 
7.23603  0  0  4  0  cwnd_ 5.000 
+ 7.236027 0 2 tcp 1040 ------- 1 0.0 4.0 7 22
- 7.236027 0 2 tcp 1040 ------- 1 0.0 4.0 7 22
7.23603  0  0  4  0  maxseq_ 7
+ 7.236027 0 2 tcp 1040 ------- 1 0.0 4.0 8 23
7.23603  0  0  4  0  maxseq_ 8
- 7.236029 0 2 tcp 1040 ------- 1 0.0 4.0 8 23
r 7.236035 2 0 ack 40 ------- 1 4.0 0.0 4 17
7.23604  0  0  4  0  ack_ 4
7.23604  0  0  4  0  cwnd_ 6.000 
+ 7.236035 0 2 tcp 1040 ------- 1 0.0 4.0 9 24
- 7.236035 0 2 tcp 1040 ------- 1 0.0 4.0 9 24
7.23604  0  0  4  0  maxseq_ 9
+ 7.236035 0 2 tcp 1040 ------- 1 0.0 4.0 10 25
7.23604  0  0  4  0  maxseq_ 10
- 7.236037 0 2 tcp 1040 ------- 1 0.0 4.0 10 25
r 7.236044 2 0 ack 40 ------- 1 4.0 0.0 5 18
7.23604  0  0  4  0  ack_ 5
7.23604  0  0  4  0  cwnd_ 7.000 
+ 7.236044 0 2 tcp 1040 ------- 1 0.0 4.0 11 26
- 7.236044 0 2 tcp 1040 ------- 1 0.0 4.0 11 26
7.23604  0  0  4  0  maxseq_ 11
+ 7.236044 0 2 tcp 1040 ------- 1 0.0 4.0 12 27
7.23604  0  0  4  0  maxseq_ 12
- 7.236046 0 2 tcp 1040 ------- 1 0.0 4.0 12 27
r 7.236052 2 0 ack 40 ------- 1 4.0 0.0 6 19
7.23605  0  0  4  0  ack_ 6
7.23605  0  0  4  0  cwnd_ 8.000 
+ 7.236052 0 2 tcp 1040 ------- 1 0.0 4.0 13 28
- 7.236052 0 2 tcp 1040 ------- 1 0.0 4.0 13 28
7.23605  0  0  4  0  maxseq_ 13
+ 7.236052 0 2 tcp 1040 ------- 1 0.0 4.0 14 29
7.23605  0  0  4  0  maxseq_ 14
- 7.236054 0 2 tcp 1040 ------- 1 0.0 4.0 14 29
r 7.380003 1 2 tcp 1040 ------- 2 1.0 5.0 2 20
+ 7.380003 2 3 tcp 1040 ------- 2 1.0 5.0 2 20
- 7.380003 2 3 tcp 1040 ------- 2 1.0 5.0 2 20
r 7.430011 2 3 tcp 1040 ------- 2 1.0 5.0 2 20
+ 7.430011 3 5 tcp 1040 ------- 2 1.0 5.0 2 20
- 7.430011 3 5 tcp 1040 ------- 2 1.0 5.0 2 20
r 7.814029 0 2 tcp 1040 ------- 1 0.0 4.0 7 22
+ 7.814029 2 3 tcp 1040 ------- 1 0.0 4.0 7 22
- 7.814029 2 3 tcp 1040 ------- 1 0.0 4.0 7 22
r 7.814031 0 2 tcp 1040 ------- 1 0.0 4.0 8 23
+ 7.814031 2 3 tcp 1040 ------- 1 0.0 4.0 8 23
r 7.814037 0 2 tcp 1040 ------- 1 0.0 4.0 9 24
+ 7.814037 2 3 tcp 1040 ------- 1 0.0 4.0 9 24
- 7.814037 2 3 tcp 1040 ------- 1 0.0 4.0 8 23
r 7.814039 0 2 tcp 1040 ------- 1 0.0 4.0 10 25
+ 7.814039 2 3 tcp 1040 ------- 1 0.0 4.0 10 25
r 7.814046 0 2 tcp 1040 ------- 1 0.0 4.0 11 26
+ 7.814046 2 3 tcp 1040 ------- 1 0.0 4.0 11 26
- 7.814046 2 3 tcp 1040 ------- 1 0.0 4.0 9 24
r 7.814048 0 2 tcp 1040 ------- 1 0.0 4.0 12 27
+ 7.814048 2 3 tcp 1040 ------- 1 0.0 4.0 12 27
r 7.814054 0 2 tcp 1040 ------- 1 0.0 4.0 13 28
+ 7.814054 2 3 tcp 1040 ------- 1 0.0 4.0 13 28
- 7.814054 2 3 tcp 1040 ------- 1 0.0 4.0 10 25
r 7.814056 0 2 tcp 1040 ------- 1 0.0 4.0 14 29
+ 7.814056 2 3 tcp 1040 ------- 1 0.0 4.0 14 29
- 7.814062 2 3 tcp 1040 ------- 1 0.0 4.0 11 26
- 7.814071 2 3 tcp 1040 ------- 1 0.0 4.0 12 27
- 7.814079 2 3 tcp 1040 ------- 1 0.0 4.0 13 28
- 7.814087 2 3 tcp 1040 ------- 1 0.0 4.0 14 29
r 7.864037 2 3 tcp 1040 ------- 1 0.0 4.0 7 22
+ 7.864037 3 4 tcp 1040 ------- 1 0.0 4.0 7 22
- 7.864037 3 4 tcp 1040 ------- 1 0.0 4.0 7 22
r 7.864046 2 3 tcp 1040 ------- 1 0.0 4.0 8 23
+ 7.864046 3 4 tcp 1040 ------- 1 0.0 4.0 8 23
- 7.864046 3 4 tcp 1040 ------- 1 0.0 4.0 8 23
r 7.864054 2 3 tcp 1040 ------- 1 0.0 4.0 9 24
+ 7.864054 3 4 tcp 1040 ------- 1 0.0 4.0 9 24
- 7.864054 3 4 tcp 1040 ------- 1 0.0 4.0 9 24
r 7.864062 2 3 tcp 1040 ------- 1 0.0 4.0 10 25
+ 7.864062 3 4 tcp 1040 ------- 1 0.0 4.0 10 25
- 7.864062 3 4 tcp 1040 ------- 1 0.0 4.0 10 25
r 7.864071 2 3 tcp 1040 ------- 1 0.0 4.0 11 26
+ 7.864071 3 4 tcp 1040 ------- 1 0.0 4.0 11 26
- 7.864071 3 4 tcp 1040 ------- 1 0.0 4.0 11 26
r 7.864079 2 3 tcp 1040 ------- 1 0.0 4.0 12 27
+ 7.864079 3 4 tcp 1040 ------- 1 0.0 4.0 12 27
- 7.864079 3 4 tcp 1040 ------- 1 0.0 4.0 12 27
r 7.864087 2 3 tcp 1040 ------- 1 0.0 4.0 13 28
+ 7.864087 3 4 tcp 1040 ------- 1 0.0 4.0 13 28
- 7.864087 3 4 tcp 1040 ------- 1 0.0 4.0 13 28
r 7.864096 2 3 tcp 1040 ------- 1 0.0 4.0 14 29
+ 7.864096 3 4 tcp 1040 ------- 1 0.0 4.0 14 29
- 7.864096 3 4 tcp 1040 ------- 1 0.0 4.0 14 29
r 7.904016 1 2 tcp 1040 ------- 2 1.0 5.0 3 21
+ 7.904016 2 3 tcp 1040 ------- 2 1.0 5.0 3 21
- 7.904016 2 3 tcp 1040 ------- 2 1.0 5.0 3 21
r 7.954024 2 3 tcp 1040 ------- 2 1.0 5.0 3 21
+ 7.954024 3 5 tcp 1040 ------- 2 1.0 5.0 3 21
- 7.954024 3 5 tcp 1040 ------- 2 1.0 5.0 3 21
r 8.286013 3 5 tcp 1040 ------- 2 1.0 5.0 2 20
+ 8.286013 5 3 ack 40 ------- 2 5.0 1.0 2 30
- 8.286013 5 3 ack 40 ------- 2 5.0 1.0 2 30
r 8.442039 3 4 tcp 1040 ------- 1 0.0 4.0 7 22
+ 8.442039 4 3 ack 40 ------- 1 4.0 0.0 7 31
- 8.442039 4 3 ack 40 ------- 1 4.0 0.0 7 31
r 8.442048 3 4 tcp 1040 ------- 1 0.0 4.0 8 23
+ 8.442048 4 3 ack 40 ------- 1 4.0 0.0 8 32
- 8.442048 4 3 ack 40 ------- 1 4.0 0.0 8 32
r 8.442056 3 4 tcp 1040 ------- 1 0.0 4.0 9 24
+ 8.442056 4 3 ack 40 ------- 1 4.0 0.0 9 33
- 8.442056 4 3 ack 40 ------- 1 4.0 0.0 9 33
r 8.442064 3 4 tcp 1040 ------- 1 0.0 4.0 10 25
+ 8.442064 4 3 ack 40 ------- 1 4.0 0.0 10 34
- 8.442064 4 3 ack 40 ------- 1 4.0 0.0 10 34
r 8.442073 3 4 tcp 1040 ------- 1 0.0 4.0 11 26
+ 8.442073 4 3 ack 40 ------- 1 4.0 0.0 11 35
- 8.442073 4 3 ack 40 ------- 1 4.0 0.0 11 35
r 8.442081 3 4 tcp 1040 ------- 1 0.0 4.0 12 27
+ 8.442081 4 3 ack 40 ------- 1 4.0 0.0 12 36
- 8.442081 4 3 ack 40 ------- 1 4.0 0.0 12 36
r 8.442089 3 4 tcp 1040 ------- 1 0.0 4.0 13 28
+ 8.442089 4 3 ack 40 ------- 1 4.0 0.0 13 37
- 8.442089 4 3 ack 40 ------- 1 4.0 0.0 13 37
r 8.442098 3 4 tcp 1040 ------- 1 0.0 4.0 14 29
+ 8.442098 4 3 ack 40 ------- 1 4.0 0.0 14 38
- 8.442098 4 3 ack 40 ------- 1 4.0 0.0 14 38
r 8.810026 3 5 tcp 1040 ------- 2 1.0 5.0 3 21
+ 8.810026 5 3 ack 40 ------- 2 5.0 1.0 3 39
- 8.810026 5 3 ack 40 ------- 2 5.0 1.0 3 39
r 9.020039 4 3 ack 40 ------- 1 4.0 0.0 7 31
+ 9.020039 3 2 ack 40 ------- 1 4.0 0.0 7 31
- 9.020039 3 2 ack 40 ------- 1 4.0 0.0 7 31
r 9.020048 4 3 ack 40 ------- 1 4.0 0.0 8 32
+ 9.020048 3 2 ack 40 ------- 1 4.0 0.0 8 32
- 9.020048 3 2 ack 40 ------- 1 4.0 0.0 8 32
r 9.020056 4 3 ack 40 ------- 1 4.0 0.0 9 33
+ 9.020056 3 2 ack 40 ------- 1 4.0 0.0 9 33
- 9.020056 3 2 ack 40 ------- 1 4.0 0.0 9 33
r 9.020064 4 3 ack 40 ------- 1 4.0 0.0 10 34
+ 9.020064 3 2 ack 40 ------- 1 4.0 0.0 10 34
- 9.020064 3 2 ack 40 ------- 1 4.0 0.0 10 34
r 9.020073 4 3 ack 40 ------- 1 4.0 0.0 11 35
+ 9.020073 3 2 ack 40 ------- 1 4.0 0.0 11 35
- 9.020073 3 2 ack 40 ------- 1 4.0 0.0 11 35
r 9.020081 4 3 ack 40 ------- 1 4.0 0.0 12 36
+ 9.020081 3 2 ack 40 ------- 1 4.0 0.0 12 36
- 9.020081 3 2 ack 40 ------- 1 4.0 0.0 12 36
r 9.020089 4 3 ack 40 ------- 1 4.0 0.0 13 37
+ 9.020089 3 2 ack 40 ------- 1 4.0 0.0 13 37
- 9.020089 3 2 ack 40 ------- 1 4.0 0.0 13 37
r 9.020098 4 3 ack 40 ------- 1 4.0 0.0 14 38
+ 9.020098 3 2 ack 40 ------- 1 4.0 0.0 14 38
- 9.020098 3 2 ack 40 ------- 1 4.0 0.0 14 38
r 9.07004 3 2 ack 40 ------- 1 4.0 0.0 7 31
+ 9.07004 2 0 ack 40 ------- 1 4.0 0.0 7 31
- 9.07004 2 0 ack 40 ------- 1 4.0 0.0 7 31
r 9.070048 3 2 ack 40 ------- 1 4.0 0.0 8 32
+ 9.070048 2 0 ack 40 ------- 1 4.0 0.0 8 32
- 9.070048 2 0 ack 40 ------- 1 4.0 0.0 8 32
r 9.070056 3 2 ack 40 ------- 1 4.0 0.0 9 33
+ 9.070056 2 0 ack 40 ------- 1 4.0 0.0 9 33
- 9.070056 2 0 ack 40 ------- 1 4.0 0.0 9 33
r 9.070065 3 2 ack 40 ------- 1 4.0 0.0 10 34
+ 9.070065 2 0 ack 40 ------- 1 4.0 0.0 10 34
- 9.070065 2 0 ack 40 ------- 1 4.0 0.0 10 34
r 9.070073 3 2 ack 40 ------- 1 4.0 0.0 11 35
+ 9.070073 2 0 ack 40 ------- 1 4.0 0.0 11 35
- 9.070073 2 0 ack 40 ------- 1 4.0 0.0 11 35
r 9.070081 3 2 ack 40 ------- 1 4.0 0.0 12 36
+ 9.070081 2 0 ack 40 ------- 1 4.0 0.0 12 36
- 9.070081 2 0 ack 40 ------- 1 4.0 0.0 12 36
r 9.07009 3 2 ack 40 ------- 1 4.0 0.0 13 37
+ 9.07009 2 0 ack 40 ------- 1 4.0 0.0 13 37
- 9.07009 2 0 ack 40 ------- 1 4.0 0.0 13 37
r 9.070098 3 2 ack 40 ------- 1 4.0 0.0 14 38
+ 9.070098 2 0 ack 40 ------- 1 4.0 0.0 14 38
- 9.070098 2 0 ack 40 ------- 1 4.0 0.0 14 38
r 9.142014 5 3 ack 40 ------- 2 5.0 1.0 2 30
+ 9.142014 3 2 ack 40 ------- 2 5.0 1.0 2 30
- 9.142014 3 2 ack 40 ------- 2 5.0 1.0 2 30
r 9.192014 3 2 ack 40 ------- 2 5.0 1.0 2 30
+ 9.192014 2 1 ack 40 ------- 2 5.0 1.0 2 30
- 9.192014 2 1 ack 40 ------- 2 5.0 1.0 2 30
r 9.64804 2 0 ack 40 ------- 1 4.0 0.0 7 31
9.64804  0  0  4  0  ack_ 7
9.64804  0  0  4  0  cwnd_ 9.000 
+ 9.64804 0 2 tcp 1040 ------- 1 0.0 4.0 15 40
- 9.64804 0 2 tcp 1040 ------- 1 0.0 4.0 15 40
9.64804  0  0  4  0  maxseq_ 15
+ 9.64804 0 2 tcp 1040 ------- 1 0.0 4.0 16 41
9.64804  0  0  4  0  maxseq_ 16
- 9.648042 0 2 tcp 1040 ------- 1 0.0 4.0 16 41
r 9.648048 2 0 ack 40 ------- 1 4.0 0.0 8 32
9.64805  0  0  4  0  ack_ 8
9.64805  0  0  4  0  cwnd_ 10.000
+ 9.648048 0 2 tcp 1040 ------- 1 0.0 4.0 17 42
- 9.648048 0 2 tcp 1040 ------- 1 0.0 4.0 17 42
9.64805  0  0  4  0  maxseq_ 17
+ 9.648048 0 2 tcp 1040 ------- 1 0.0 4.0 18 43
9.64805  0  0  4  0  maxseq_ 18
- 9.64805 0 2 tcp 1040 ------- 1 0.0 4.0 18 43
r 9.648056 2 0 ack 40 ------- 1 4.0 0.0 9 33
9.64806  0  0  4  0  ack_ 9
9.64806  0  0  4  0  cwnd_ 11.000
+ 9.648056 0 2 tcp 1040 ------- 1 0.0 4.0 19 44
- 9.648056 0 2 tcp 1040 ------- 1 0.0 4.0 19 44
9.64806  0  0  4  0  maxseq_ 19
+ 9.648056 0 2 tcp 1040 ------- 1 0.0 4.0 20 45
9.64806  0  0  4  0  maxseq_ 20
- 9.648059 0 2 tcp 1040 ------- 1 0.0 4.0 20 45
r 9.648065 2 0 ack 40 ------- 1 4.0 0.0 10 34
9.64806  0  0  4  0  ack_ 10
9.64806  0  0  4  0  cwnd_ 12.000
+ 9.648065 0 2 tcp 1040 ------- 1 0.0 4.0 21 46
- 9.648065 0 2 tcp 1040 ------- 1 0.0 4.0 21 46
9.64806  0  0  4  0  maxseq_ 21
+ 9.648065 0 2 tcp 1040 ------- 1 0.0 4.0 22 47
9.64806  0  0  4  0  maxseq_ 22
- 9.648067 0 2 tcp 1040 ------- 1 0.0 4.0 22 47
r 9.648073 2 0 ack 40 ------- 1 4.0 0.0 11 35
9.64807  0  0  4  0  ack_ 11
9.64807  0  0  4  0  cwnd_ 13.000
+ 9.648073 0 2 tcp 1040 ------- 1 0.0 4.0 23 48
- 9.648073 0 2 tcp 1040 ------- 1 0.0 4.0 23 48
9.64807  0  0  4  0  maxseq_ 23
+ 9.648073 0 2 tcp 1040 ------- 1 0.0 4.0 24 49
9.64807  0  0  4  0  maxseq_ 24
- 9.648075 0 2 tcp 1040 ------- 1 0.0 4.0 24 49
r 9.648081 2 0 ack 40 ------- 1 4.0 0.0 12 36
9.64808  0  0  4  0  ack_ 12
9.64808  0  0  4  0  cwnd_ 14.000
+ 9.648081 0 2 tcp 1040 ------- 1 0.0 4.0 25 50
- 9.648081 0 2 tcp 1040 ------- 1 0.0 4.0 25 50
9.64808  0  0  4  0  maxseq_ 25
+ 9.648081 0 2 tcp 1040 ------- 1 0.0 4.0 26 51
9.64808  0  0  4  0  maxseq_ 26
- 9.648084 0 2 tcp 1040 ------- 1 0.0 4.0 26 51
r 9.64809 2 0 ack 40 ------- 1 4.0 0.0 13 37
9.64809  0  0  4  0  ack_ 13
9.64809  0  0  4  0  cwnd_ 15.000
+ 9.64809 0 2 tcp 1040 ------- 1 0.0 4.0 27 52
- 9.64809 0 2 tcp 1040 ------- 1 0.0 4.0 27 52
9.64809  0  0  4  0  maxseq_ 27
+ 9.64809 0 2 tcp 1040 ------- 1 0.0 4.0 28 53
9.64809  0  0  4  0  maxseq_ 28
- 9.648092 0 2 tcp 1040 ------- 1 0.0 4.0 28 53
r 9.648098 2 0 ack 40 ------- 1 4.0 0.0 14 38
9.64810  0  0  4  0  ack_ 14
9.64810  0  0  4  0  cwnd_ 16.000
+ 9.648098 0 2 tcp 1040 ------- 1 0.0 4.0 29 54
- 9.648098 0 2 tcp 1040 ------- 1 0.0 4.0 29 54
9.64810  0  0  4  0  maxseq_ 29
+ 9.648098 0 2 tcp 1040 ------- 1 0.0 4.0 30 55
9.64810  0  0  4  0  maxseq_ 30
- 9.6481 0 2 tcp 1040 ------- 1 0.0 4.0 30 55
r 9.666026 5 3 ack 40 ------- 2 5.0 1.0 3 39
+ 9.666026 3 2 ack 40 ------- 2 5.0 1.0 3 39
- 9.666026 3 2 ack 40 ------- 2 5.0 1.0 3 39
r 9.716027 3 2 ack 40 ------- 2 5.0 1.0 3 39
+ 9.716027 2 1 ack 40 ------- 2 5.0 1.0 3 39
- 9.716027 2 1 ack 40 ------- 2 5.0 1.0 3 39
r 10.048014 2 1 ack 40 ------- 2 5.0 1.0 2 30
10.04801 1  0  5  0  ack_ 2
10.04801 1  0  5  0  cwnd_ 2.500 
+ 10.048014 1 2 tcp 1040 ------- 2 1.0 5.0 4 56
- 10.048014 1 2 tcp 1040 ------- 2 1.0 5.0 4 56
10.04801 1  0  5  0  maxseq_ 4
r 10.226042 0 2 tcp 1040 ------- 1 0.0 4.0 15 40
+ 10.226042 2 3 tcp 1040 ------- 1 0.0 4.0 15 40
- 10.226042 2 3 tcp 1040 ------- 1 0.0 4.0 15 40
r 10.226044 0 2 tcp 1040 ------- 1 0.0 4.0 16 41
+ 10.226044 2 3 tcp 1040 ------- 1 0.0 4.0 16 41
- 10.22605 2 3 tcp 1040 ------- 1 0.0 4.0 16 41
r 10.22605 0 2 tcp 1040 ------- 1 0.0 4.0 17 42
+ 10.22605 2 3 tcp 1040 ------- 1 0.0 4.0 17 42
r 10.226052 0 2 tcp 1040 ------- 1 0.0 4.0 18 43
+ 10.226052 2 3 tcp 1040 ------- 1 0.0 4.0 18 43
- 10.226059 2 3 tcp 1040 ------- 1 0.0 4.0 17 42
r 10.226059 0 2 tcp 1040 ------- 1 0.0 4.0 19 44
+ 10.226059 2 3 tcp 1040 ------- 1 0.0 4.0 19 44
r 10.226061 0 2 tcp 1040 ------- 1 0.0 4.0 20 45
+ 10.226061 2 3 tcp 1040 ------- 1 0.0 4.0 20 45
- 10.226067 2 3 tcp 1040 ------- 1 0.0 4.0 18 43
r 10.226067 0 2 tcp 1040 ------- 1 0.0 4.0 21 46
+ 10.226067 2 3 tcp 1040 ------- 1 0.0 4.0 21 46
r 10.226069 0 2 tcp 1040 ------- 1 0.0 4.0 22 47
+ 10.226069 2 3 tcp 1040 ------- 1 0.0 4.0 22 47
- 10.226075 2 3 tcp 1040 ------- 1 0.0 4.0 19 44
r 10.226075 0 2 tcp 1040 ------- 1 0.0 4.0 23 48
+ 10.226075 2 3 tcp 1040 ------- 1 0.0 4.0 23 48
r 10.226077 0 2 tcp 1040 ------- 1 0.0 4.0 24 49
+ 10.226077 2 3 tcp 1040 ------- 1 0.0 4.0 24 49
- 10.226084 2 3 tcp 1040 ------- 1 0.0 4.0 20 45
r 10.226084 0 2 tcp 1040 ------- 1 0.0 4.0 25 50
+ 10.226084 2 3 tcp 1040 ------- 1 0.0 4.0 25 50
r 10.226086 0 2 tcp 1040 ------- 1 0.0 4.0 26 51
+ 10.226086 2 3 tcp 1040 ------- 1 0.0 4.0 26 51
- 10.226092 2 3 tcp 1040 ------- 1 0.0 4.0 21 46
r 10.226092 0 2 tcp 1040 ------- 1 0.0 4.0 27 52
+ 10.226092 2 3 tcp 1040 ------- 1 0.0 4.0 27 52
r 10.226094 0 2 tcp 1040 ------- 1 0.0 4.0 28 53
+ 10.226094 2 3 tcp 1040 ------- 1 0.0 4.0 28 53
- 10.2261 2 3 tcp 1040 ------- 1 0.0 4.0 22 47
r 10.2261 0 2 tcp 1040 ------- 1 0.0 4.0 29 54
+ 10.2261 2 3 tcp 1040 ------- 1 0.0 4.0 29 54
r 10.226102 0 2 tcp 1040 ------- 1 0.0 4.0 30 55
+ 10.226102 2 3 tcp 1040 ------- 1 0.0 4.0 30 55
- 10.226108 2 3 tcp 1040 ------- 1 0.0 4.0 23 48
- 10.226117 2 3 tcp 1040 ------- 1 0.0 4.0 24 49
- 10.226125 2 3 tcp 1040 ------- 1 0.0 4.0 25 50
- 10.226133 2 3 tcp 1040 ------- 1 0.0 4.0 26 51
- 10.226142 2 3 tcp 1040 ------- 1 0.0 4.0 27 52
- 10.22615 2 3 tcp 1040 ------- 1 0.0 4.0 28 53
- 10.226158 2 3 tcp 1040 ------- 1 0.0 4.0 29 54
- 10.226167 2 3 tcp 1040 ------- 1 0.0 4.0 30 55
r 10.27605 2 3 tcp 1040 ------- 1 0.0 4.0 15 40
+ 10.27605 3 4 tcp 1040 ------- 1 0.0 4.0 15 40
- 10.27605 3 4 tcp 1040 ------- 1 0.0 4.0 15 40
r 10.276059 2 3 tcp 1040 ------- 1 0.0 4.0 16 41
+ 10.276059 3 4 tcp 1040 ------- 1 0.0 4.0 16 41
- 10.276059 3 4 tcp 1040 ------- 1 0.0 4.0 16 41
r 10.276067 2 3 tcp 1040 ------- 1 0.0 4.0 17 42
+ 10.276067 3 4 tcp 1040 ------- 1 0.0 4.0 17 42
- 10.276067 3 4 tcp 1040 ------- 1 0.0 4.0 17 42
r 10.276075 2 3 tcp 1040 ------- 1 0.0 4.0 18 43
+ 10.276075 3 4 tcp 1040 ------- 1 0.0 4.0 18 43
- 10.276075 3 4 tcp 1040 ------- 1 0.0 4.0 18 43
r 10.276084 2 3 tcp 1040 ------- 1 0.0 4.0 19 44
+ 10.276084 3 4 tcp 1040 ------- 1 0.0 4.0 19 44
- 10.276084 3 4 tcp 1040 ------- 1 0.0 4.0 19 44
r 10.276092 2 3 tcp 1040 ------- 1 0.0 4.0 20 45
+ 10.276092 3 4 tcp 1040 ------- 1 0.0 4.0 20 45
- 10.276092 3 4 tcp 1040 ------- 1 0.0 4.0 20 45
r 10.2761 2 3 tcp 1040 ------- 1 0.0 4.0 21 46
+ 10.2761 3 4 tcp 1040 ------- 1 0.0 4.0 21 46
- 10.2761 3 4 tcp 1040 ------- 1 0.0 4.0 21 46
r 10.276108 2 3 tcp 1040 ------- 1 0.0 4.0 22 47
+ 10.276108 3 4 tcp 1040 ------- 1 0.0 4.0 22 47
- 10.276108 3 4 tcp 1040 ------- 1 0.0 4.0 22 47
r 10.276117 2 3 tcp 1040 ------- 1 0.0 4.0 23 48
+ 10.276117 3 4 tcp 1040 ------- 1 0.0 4.0 23 48
- 10.276117 3 4 tcp 1040 ------- 1 0.0 4.0 23 48
r 10.276125 2 3 tcp 1040 ------- 1 0.0 4.0 24 49
+ 10.276125 3 4 tcp 1040 ------- 1 0.0 4.0 24 49
- 10.276125 3 4 tcp 1040 ------- 1 0.0 4.0 24 49
r 10.276133 2 3 tcp 1040 ------- 1 0.0 4.0 25 50
+ 10.276133 3 4 tcp 1040 ------- 1 0.0 4.0 25 50
- 10.276133 3 4 tcp 1040 ------- 1 0.0 4.0 25 50
r 10.276142 2 3 tcp 1040 ------- 1 0.0 4.0 26 51
+ 10.276142 3 4 tcp 1040 ------- 1 0.0 4.0 26 51
- 10.276142 3 4 tcp 1040 ------- 1 0.0 4.0 26 51
r 10.27615 2 3 tcp 1040 ------- 1 0.0 4.0 27 52
+ 10.27615 3 4 tcp 1040 ------- 1 0.0 4.0 27 52
- 10.27615 3 4 tcp 1040 ------- 1 0.0 4.0 27 52
r 10.276158 2 3 tcp 1040 ------- 1 0.0 4.0 28 53
+ 10.276158 3 4 tcp 1040 ------- 1 0.0 4.0 28 53
- 10.276158 3 4 tcp 1040 ------- 1 0.0 4.0 28 53
r 10.276167 2 3 tcp 1040 ------- 1 0.0 4.0 29 54
+ 10.276167 3 4 tcp 1040 ------- 1 0.0 4.0 29 54
- 10.276167 3 4 tcp 1040 ------- 1 0.0 4.0 29 54
r 10.276175 2 3 tcp 1040 ------- 1 0.0 4.0 30 55
+ 10.276175 3 4 tcp 1040 ------- 1 0.0 4.0 30 55
- 10.276175 3 4 tcp 1040 ------- 1 0.0 4.0 30 55
r 10.572027 2 1 ack 40 ------- 2 5.0 1.0 3 39
10.57203 1  0  5  0  ack_ 3
10.57203 1  0  5  0  rtt_ 3.530 
10.57203 1  0  5  0  cwnd_ 2.900 
+ 10.572027 1 2 tcp 1040 ------- 2 1.0 5.0 5 57
- 10.572027 1 2 tcp 1040 ------- 2 1.0 5.0 5 57
10.57203 1  0  5  0  maxseq_ 5
r 10.854052 3 4 tcp 1040 ------- 1 0.0 4.0 15 40
+ 10.854052 4 3 ack 40 ------- 1 4.0 0.0 15 58
- 10.854052 4 3 ack 40 ------- 1 4.0 0.0 15 58
r 10.854061 3 4 tcp 1040 ------- 1 0.0 4.0 16 41
+ 10.854061 4 3 ack 40 ------- 1 4.0 0.0 16 59
- 10.854061 4 3 ack 40 ------- 1 4.0 0.0 16 59
r 10.854069 3 4 tcp 1040 ------- 1 0.0 4.0 17 42
+ 10.854069 4 3 ack 40 ------- 1 4.0 0.0 17 60
- 10.854069 4 3 ack 40 ------- 1 4.0 0.0 17 60
r 10.854077 3 4 tcp 1040 ------- 1 0.0 4.0 18 43
+ 10.854077 4 3 ack 40 ------- 1 4.0 0.0 18 61
- 10.854077 4 3 ack 40 ------- 1 4.0 0.0 18 61
r 10.854086 3 4 tcp 1040 ------- 1 0.0 4.0 19 44
+ 10.854086 4 3 ack 40 ------- 1 4.0 0.0 19 62
- 10.854086 4 3 ack 40 ------- 1 4.0 0.0 19 62
r 10.854094 3 4 tcp 1040 ------- 1 0.0 4.0 20 45
+ 10.854094 4 3 ack 40 ------- 1 4.0 0.0 20 63
- 10.854094 4 3 ack 40 ------- 1 4.0 0.0 20 63
r 10.854102 3 4 tcp 1040 ------- 1 0.0 4.0 21 46
+ 10.854102 4 3 ack 40 ------- 1 4.0 0.0 21 64
- 10.854102 4 3 ack 40 ------- 1 4.0 0.0 21 64
r 10.854111 3 4 tcp 1040 ------- 1 0.0 4.0 22 47
+ 10.854111 4 3 ack 40 ------- 1 4.0 0.0 22 65
- 10.854111 4 3 ack 40 ------- 1 4.0 0.0 22 65
r 10.854119 3 4 tcp 1040 ------- 1 0.0 4.0 23 48
+ 10.854119 4 3 ack 40 ------- 1 4.0 0.0 23 66
- 10.854119 4 3 ack 40 ------- 1 4.0 0.0 23 66
r 10.854127 3 4 tcp 1040 ------- 1 0.0 4.0 24 49
+ 10.854127 4 3 ack 40 ------- 1 4.0 0.0 24 67
- 10.854127 4 3 ack 40 ------- 1 4.0 0.0 24 67
r 10.854136 3 4 tcp 1040 ------- 1 0.0 4.0 25 50
+ 10.854136 4 3 ack 40 ------- 1 4.0 0.0 25 68
- 10.854136 4 3 ack 40 ------- 1 4.0 0.0 25 68
r 10.854144 3 4 tcp 1040 ------- 1 0.0 4.0 26 51
+ 10.854144 4 3 ack 40 ------- 1 4.0 0.0 26 69
- 10.854144 4 3 ack 40 ------- 1 4.0 0.0 26 69
r 10.854152 3 4 tcp 1040 ------- 1 0.0 4.0 27 52
+ 10.854152 4 3 ack 40 ------- 1 4.0 0.0 27 70
- 10.854152 4 3 ack 40 ------- 1 4.0 0.0 27 70
r 10.85416 3 4 tcp 1040 ------- 1 0.0 4.0 28 53
+ 10.85416 4 3 ack 40 ------- 1 4.0 0.0 28 71
- 10.85416 4 3 ack 40 ------- 1 4.0 0.0 28 71
r 10.854169 3 4 tcp 1040 ------- 1 0.0 4.0 29 54
+ 10.854169 4 3 ack 40 ------- 1 4.0 0.0 29 72
- 10.854169 4 3 ack 40 ------- 1 4.0 0.0 29 72
r 10.854177 3 4 tcp 1040 ------- 1 0.0 4.0 30 55
+ 10.854177 4 3 ack 40 ------- 1 4.0 0.0 30 73
- 10.854177 4 3 ack 40 ------- 1 4.0 0.0 30 73
r 10.904016 1 2 tcp 1040 ------- 2 1.0 5.0 4 56
+ 10.904016 2 3 tcp 1040 ------- 2 1.0 5.0 4 56
- 10.904016 2 3 tcp 1040 ------- 2 1.0 5.0 4 56
r 10.954024 2 3 tcp 1040 ------- 2 1.0 5.0 4 56
+ 10.954024 3 5 tcp 1040 ------- 2 1.0 5.0 4 56
- 10.954024 3 5 tcp 1040 ------- 2 1.0 5.0 4 56
r 11.428029 1 2 tcp 1040 ------- 2 1.0 5.0 5 57
+ 11.428029 2 3 tcp 1040 ------- 2 1.0 5.0 5 57
- 11.428029 2 3 tcp 1040 ------- 2 1.0 5.0 5 57
r 11.432052 4 3 ack 40 ------- 1 4.0 0.0 15 58
+ 11.432052 3 2 ack 40 ------- 1 4.0 0.0 15 58
- 11.432052 3 2 ack 40 ------- 1 4.0 0.0 15 58
r 11.432061 4 3 ack 40 ------- 1 4.0 0.0 16 59
+ 11.432061 3 2 ack 40 ------- 1 4.0 0.0 16 59
- 11.432061 3 2 ack 40 ------- 1 4.0 0.0 16 59
r 11.432069 4 3 ack 40 ------- 1 4.0 0.0 17 60
+ 11.432069 3 2 ack 40 ------- 1 4.0 0.0 17 60
- 11.432069 3 2 ack 40 ------- 1 4.0 0.0 17 60
r 11.432077 4 3 ack 40 ------- 1 4.0 0.0 18 61
+ 11.432077 3 2 ack 40 ------- 1 4.0 0.0 18 61
- 11.432077 3 2 ack 40 ------- 1 4.0 0.0 18 61
r 11.432086 4 3 ack 40 ------- 1 4.0 0.0 19 62
+ 11.432086 3 2 ack 40 ------- 1 4.0 0.0 19 62
- 11.432086 3 2 ack 40 ------- 1 4.0 0.0 19 62
r 11.432094 4 3 ack 40 ------- 1 4.0 0.0 20 63
+ 11.432094 3 2 ack 40 ------- 1 4.0 0.0 20 63
- 11.432094 3 2 ack 40 ------- 1 4.0 0.0 20 63
r 11.432102 4 3 ack 40 ------- 1 4.0 0.0 21 64
+ 11.432102 3 2 ack 40 ------- 1 4.0 0.0 21 64
- 11.432102 3 2 ack 40 ------- 1 4.0 0.0 21 64
r 11.432111 4 3 ack 40 ------- 1 4.0 0.0 22 65
+ 11.432111 3 2 ack 40 ------- 1 4.0 0.0 22 65
- 11.432111 3 2 ack 40 ------- 1 4.0 0.0 22 65
r 11.432119 4 3 ack 40 ------- 1 4.0 0.0 23 66
+ 11.432119 3 2 ack 40 ------- 1 4.0 0.0 23 66
- 11.432119 3 2 ack 40 ------- 1 4.0 0.0 23 66
r 11.432127 4 3 ack 40 ------- 1 4.0 0.0 24 67
+ 11.432127 3 2 ack 40 ------- 1 4.0 0.0 24 67
- 11.432127 3 2 ack 40 ------- 1 4.0 0.0 24 67
r 11.432136 4 3 ack 40 ------- 1 4.0 0.0 25 68