0.00000  0  0  4  0  cwnd_ 1.000 
0.00000  0  0  4  0  ssthresh_ 20
0.00000  0  0  4  0  ack_ -1
0.00000  0  0  4  0  maxseq_ -1
0.00000  0  0  4  0  rtt_ 0.000 
0.00000  1  0  5  0  cwnd_ 1.000 
0.00000  1  0  5  0  ssthresh_ 20
0.00000  1  0  5  0  ack_ -1
0.00000  1  0  5  0  maxseq_ -1
0.00000  1  0  5  0  rtt_ 0.000 
0.00000  0  0  4  0  ssthresh_ 1000
0.00000  1  0  5  0  ssthresh_ 1000
+ 0 1 2 tcp 40 ------- 2 1.0 5.0 0 0
- 0 1 2 tcp 40 ------- 2 1.0 5.0 0 0
0.00000  1  0  5  0  maxseq_ 0
+ 0 0 2 tcp 40 ------- 1 0.0 4.0 0 1
- 0 0 2 tcp 40 ------- 1 0.0 4.0 0 1
0.00000  0  0  4  0  maxseq_ 0
r 0.567 0 2 tcp 40 ------- 1 0.0 4.0 0 1
+ 0.567 2 3 tcp 40 ------- 1 0.0 4.0 0 1
- 0.567 2 3 tcp 40 ------- 1 0.0 4.0 0 1
r 0.617 2 3 tcp 40 ------- 1 0.0 4.0 0 1
+ 0.617 3 4 tcp 40 ------- 1 0.0 4.0 0 1
- 0.617 3 4 tcp 40 ------- 1 0.0 4.0 0 1
r 0.845 1 2 tcp 40 ------- 2 1.0 5.0 0 0
+ 0.845 2 3 tcp 40 ------- 2 1.0 5.0 0 0
- 0.845 2 3 tcp 40 ------- 2 1.0 5.0 0 0
r 0.895 2 3 tcp 40 ------- 2 1.0 5.0 0 0
+ 0.895 3 5 tcp 40 ------- 2 1.0 5.0 0 0
- 0.895 3 5 tcp 40 ------- 2 1.0 5.0 0 0
r 1.184 3 4 tcp 40 ------- 1 0.0 4.0 0 1
+ 1.184 4 3 ack 40 ------- 1 4.0 0.0 0 2
- 1.184 4 3 ack 40 ------- 1 4.0 0.0 0 2
r 1.74 3 5 tcp 40 ------- 2 1.0 5.0 0 0
+ 1.74 5 3 ack 40 ------- 2 5.0 1.0 0 3
- 1.74 5 3 ack 40 ------- 2 5.0 1.0 0 3
r 1.751001 4 3 ack 40 ------- 1 4.0 0.0 0 2
+ 1.751001 3 2 ack 40 ------- 1 4.0 0.0 0 2
- 1.751001 3 2 ack 40 ------- 1 4.0 0.0 0 2
r 1.801001 3 2 ack 40 ------- 1 4.0 0.0 0 2
+ 1.801001 2 0 ack 40 ------- 1 4.0 0.0 0 2
- 1.801001 2 0 ack 40 ------- 1 4.0 0.0 0 2
r 2.368001 2 0 ack 40 ------- 1 4.0 0.0 0 2
2.36800  0  0  4  0  ack_ 0
2.36800  0  0  4  0  rtt_ 2.370 
2.36800  0  0  4  0  cwnd_ 2.000 
+ 2.368001 0 2 tcp 1040 ------- 1 0.0 4.0 1 4
- 2.368001 0 2 tcp 1040 ------- 1 0.0 4.0 1 4
2.36800  0  0  4  0  maxseq_ 1
+ 2.368001 0 2 tcp 1040 ------- 1 0.0 4.0 2 5
2.36800  0  0  4  0  maxseq_ 2
- 2.368003 0 2 tcp 1040 ------- 1 0.0 4.0 2 5
r 2.585001 5 3 ack 40 ------- 2 5.0 1.0 0 3
+ 2.585001 3 2 ack 40 ------- 2 5.0 1.0 0 3
- 2.585001 3 2 ack 40 ------- 2 5.0 1.0 0 3
r 2.635001 3 2 ack 40 ------- 2 5.0 1.0 0 3
+ 2.635001 2 1 ack 40 ------- 2 5.0 1.0 0 3
- 2.635001 2 1 ack 40 ------- 2 5.0 1.0 0 3
r 2.935003 0 2 tcp 1040 ------- 1 0.0 4.0 1 4
+ 2.935003 2 3 tcp 1040 ------- 1 0.0 4.0 1 4
- 2.935003 2 3 tcp 1040 ------- 1 0.0 4.0 1 4
r 2.935005 0 2 tcp 1040 ------- 1 0.0 4.0 2 5
+ 2.935005 2 3 tcp 1040 ------- 1 0.0 4.0 2 5
- 2.935011 2 3 tcp 1040 ------- 1 0.0 4.0 2 5
r 2.985011 2 3 tcp 1040 ------- 1 0.0 4.0 1 4
+ 2.985011 3 4 tcp 1040 ------- 1 0.0 4.0 1 4
- 2.985011 3 4 tcp 1040 ------- 1 0.0 4.0 1 4
r 2.98502 2 3 tcp 1040 ------- 1 0.0 4.0 2 5
+ 2.98502 3 4 tcp 1040 ------- 1 0.0 4.0 2 5
- 2.98502 3 4 tcp 1040 ------- 1 0.0 4.0 2 5
3.00000  1  0  5  0  ssthresh_ 0
3.00000  1  0  5  0  ssthresh_ 2
+ 3 1 2 tcp 40 ---A--- 2 1.0 5.0 0 6
- 3 1 2 tcp 40 ---A--- 2 1.0 5.0 0 6
r 3.480001 2 1 ack 40 ------- 2 5.0 1.0 0 3
3.48000  1  0  5  0  ack_ 0
3.48000  1  0  5  0  cwnd_ 2.000 
3.48000  1  0  5  0  cwnd_ 1.000 
+ 3.480001 1 2 tcp 1040 ------- 2 1.0 5.0 1 7
- 3.480001 1 2 tcp 1040 ------- 2 1.0 5.0 1 7
3.48000  1  0  5  0  maxseq_ 1
r 3.552013 3 4 tcp 1040 ------- 1 0.0 4.0 1 4
+ 3.552013 4 3 ack 40 ------- 1 4.0 0.0 1 8
- 3.552013 4 3 ack 40 ------- 1 4.0 0.0 1 8
r 3.552022 3 4 tcp 1040 ------- 1 0.0 4.0 2 5
+ 3.552022 4 3 ack 40 ------- 1 4.0 0.0 2 9
- 3.552022 4 3 ack 40 ------- 1 4.0 0.0 2 9
r 3.845 1 2 tcp 40 ---A--- 2 1.0 5.0 0 6
+ 3.845 2 3 tcp 40 ---A--- 2 1.0 5.0 0 6
- 3.845 2 3 tcp 40 ---A--- 2 1.0 5.0 0 6
r 3.895 2 3 tcp 40 ---A--- 2 1.0 5.0 0 6
+ 3.895 3 5 tcp 40 ---A--- 2 1.0 5.0 0 6
- 3.895 3 5 tcp 40 ---A--- 2 1.0 5.0 0 6
r 4.119014 4 3 ack 40 ------- 1 4.0 0.0 1 8
+ 4.119014 3 2 ack 40 ------- 1 4.0 0.0 1 8
- 4.119014 3 2 ack 40 ------- 1 4.0 0.0 1 8
r 4.119022 4 3 ack 40 ------- 1 4.0 0.0 2 9
+ 4.119022 3 2 ack 40 ------- 1 4.0 0.0 2 9
- 4.119022 3 2 ack 40 ------- 1 4.0 0.0 2 9
r 4.169014 3 2 ack 40 ------- 1 4.0 0.0 1 8
+ 4.169014 2 0 ack 40 ------- 1 4.0 0.0 1 8
- 4.169014 2 0 ack 40 ------- 1 4.0 0.0 1 8
r 4.169022 3 2 ack 40 ------- 1 4.0 0.0 2 9
+ 4.169022 2 0 ack 40 ------- 1 4.0 0.0 2 9
- 4.169022 2 0 ack 40 ------- 1 4.0 0.0 2 9
r 4.325003 1 2 tcp 1040 ------- 2 1.0 5.0 1 7
+ 4.325003 2 3 tcp 1040 ------- 2 1.0 5.0 1 7
- 4.325003 2 3 tcp 1040 ------- 2 1.0 5.0 1 7
r 4.375011 2 3 tcp 1040 ------- 2 1.0 5.0 1 7
+ 4.375011 3 5 tcp 1040 ------- 2 1.0 5.0 1 7
- 4.375011 3 5 tcp 1040 ------- 2 1.0 5.0 1 7
r 4.736014 2 0 ack 40 ------- 1 4.0 0.0 1 8
4.73601  0  0  4  0  ack_ 1
4.73601  0  0  4  0  cwnd_ 3.000 
+ 4.736014 0 2 tcp 1040 ------- 1 0.0 4.0 3 10
- 4.736014 0 2 tcp 1040 ------- 1 0.0 4.0 3 10
4.73601  0  0  4  0  maxseq_ 3
+ 4.736014 0 2 tcp 1040 ------- 1 0.0 4.0 4 11
4.73601  0  0  4  0  maxseq_ 4
- 4.736016 0 2 tcp 1040 ------- 1 0.0 4.0 4 11
r 4.736022 2 0 ack 40 ------- 1 4.0 0.0 2 9
4.73602  0  0  4  0  ack_ 2
4.73602  0  0  4  0  cwnd_ 4.000 
+ 4.736022 0 2 tcp 1040 ------- 1 0.0 4.0 5 12
- 4.736022 0 2 tcp 1040 ------- 1 0.0 4.0 5 12
4.73602  0  0  4  0  maxseq_ 5
+ 4.736022 0 2 tcp 1040 ------- 1 0.0 4.0 6 13
4.73602  0  0  4  0  maxseq_ 6
- 4.736024 0 2 tcp 1040 ------- 1 0.0 4.0 6 13
r 4.74 3 5 tcp 40 ---A--- 2 1.0 5.0 0 6
+ 4.74 5 3 ack 40 ------- 2 5.0 1.0 0 14
- 4.74 5 3 ack 40 ------- 2 5.0 1.0 0 14
r 5.220013 3 5 tcp 1040 ------- 2 1.0 5.0 1 7
+ 5.220013 5 3 ack 40 ------- 2 5.0 1.0 1 15
- 5.220013 5 3 ack 40 ------- 2 5.0 1.0 1 15
r 5.303016 0 2 tcp 1040 ------- 1 0.0 4.0 3 10
+ 5.303016 2 3 tcp 1040 ------- 1 0.0 4.0 3 10
- 5.303016 2 3 tcp 1040 ------- 1 0.0 4.0 3 10
r 5.303018 0 2 tcp 1040 ------- 1 0.0 4.0 4 11
+ 5.303018 2 3 tcp 1040 ------- 1 0.0 4.0 4 11
r 5.303024 0 2 tcp 1040 ------- 1 0.0 4.0 5 12
+ 5.303024 2 3 tcp 1040 ------- 1 0.0 4.0 5 12
- 5.303024 2 3 tcp 1040 ------- 1 0.0 4.0 4 11
r 5.303026 0 2 tcp 1040 ------- 1 0.0 4.0 6 13
+ 5.303026 2 3 tcp 1040 ------- 1 0.0 4.0 6 13
- 5.303033 2 3 tcp 1040 ------- 1 0.0 4.0 5 12
- 5.303041 2 3 tcp 1040 ------- 1 0.0 4.0 6 13
r 5.353024 2 3 tcp 1040 ------- 1 0.0 4.0 3 10
+ 5.353024 3 4 tcp 1040 ------- 1 0.0 4.0 3 10
- 5.353024 3 4 tcp 1040 ------- 1 0.0 4.0 3 10
r 5.353033 2 3 tcp 1040 ------- 1 0.0 4.0 4 11
+ 5.353033 3 4 tcp 1040 ------- 1 0.0 4.0 4 11
- 5.353033 3 4 tcp 1040 ------- 1 0.0 4.0 4 11
r 5.353041 2 3 tcp 1040 ------- 1 0.0 4.0 5 12
+ 5.353041 3 4 tcp 1040 ------- 1 0.0 4.0 5 12
- 5.353041 3 4 tcp 1040 ------- 1 0.0 4.0 5 12
r 5.353049 2 3 tcp 1040 ------- 1 0.0 4.0 6 13
+ 5.353049 3 4 tcp 1040 ------- 1 0.0 4.0 6 13
- 5.353049 3 4 tcp 1040 ------- 1 0.0 4.0 6 13
r 5.585001 5 3 ack 40 ------- 2 5.0 1.0 0 14
+ 5.585001 3 2 ack 40 ------- 2 5.0 1.0 0 14
- 5.585001 3 2 ack 40 ------- 2 5.0 1.0 0 14
r 5.635001 3 2 ack 40 ------- 2 5.0 1.0 0 14
+ 5.635001 2 1 ack 40 ------- 2 5.0 1.0 0 14
- 5.635001 2 1 ack 40 ------- 2 5.0 1.0 0 14
r 5.920026 3 4 tcp 1040 ------- 1 0.0 4.0 3 10
+ 5.920026 4 3 ack 40 ------- 1 4.0 0.0 3 16
- 5.920026 4 3 ack 40 ------- 1 4.0 0.0 3 16
r 5.920035 3 4 tcp 1040 ------- 1 0.0 4.0 4 11
+ 5.920035 4 3 ack 40 ------- 1 4.0 0.0 4 17
- 5.920035 4 3 ack 40 ------- 1 4.0 0.0 4 17
r 5.920043 3 4 tcp 1040 ------- 1 0.0 4.0 5 12
+ 5.920043 4 3 ack 40 ------- 1 4.0 0.0 5 18
- 5.920043 4 3 ack 40 ------- 1 4.0 0.0 5 18
r 5.920051 3 4 tcp 1040 ------- 1 0.0 4.0 6 13
+ 5.920051 4 3 ack 40 ------- 1 4.0 0.0 6 19
- 5.920051 4 3 ack 40 ------- 1 4.0 0.0 6 19
r 6.065014 5 3 ack 40 ------- 2 5.0 1.0 1 15
+ 6.065014 3 2 ack 40 ------- 2 5.0 1.0 1 15
- 6.065014 3 2 ack 40 ------- 2 5.0 1.0 1 15
r 6.115014 3 2 ack 40 ------- 2 5.0 1.0 1 15
+ 6.115014 2 1 ack 40 ------- 2 5.0 1.0 1 15
- 6.115014 2 1 ack 40 ------- 2 5.0 1.0 1 15
r 6.480001 2 1 ack 40 ------- 2 5.0 1.0 0 14
+ 6.480001 1 2 tcp 1040 ------- 2 1.0 5.0 2 20
- 6.480001 1 2 tcp 1040 ------- 2 1.0 5.0 2 20
6.48000  1  0  5  0  maxseq_ 2
r 6.487026 4 3 ack 40 ------- 1 4.0 0.0 3 16
+ 6.487026 3 2 ack 40 ------- 1 4.0 0.0 3 16
- 6.487026 3 2 ack 40 ------- 1 4.0 0.0 3 16
r 6.487035 4 3 ack 40 ------- 1 4.0 0.0 4 17
+ 6.487035 3 2 ack 40 ------- 1 4.0 0.0 4 17
- 6.487035 3 2 ack 40 ------- 1 4.0 0.0 4 17
r 6.487043 4 3 ack 40 ------- 1 4.0 0.0 5 18
+ 6.487043 3 2 ack 40 ------- 1 4.0 0.0 5 18
- 6.487043 3 2 ack 40 ------- 1 4.0 0.0 5 18
r 6.487051 4 3 ack 40 ------- 1 4.0 0.0 6 19
+ 6.487051 3 2 ack 40 ------- 1 4.0 0.0 6 19
- 6.487051 3 2 ack 40 ------- 1 4.0 0.0 6 19
r 6.537027 3 2 ack 40 ------- 1 4.0 0.0 3 16
+ 6.537027 2 0 ack 40 ------- 1 4.0 0.0 3 16
- 6.537027 2 0 ack 40 ------- 1 4.0 0.0 3 16
r 6.537035 3 2 ack 40 ------- 1 4.0 0.0 4 17
+ 6.537035 2 0 ack 40 ------- 1 4.0 0.0 4 17
- 6.537035 2 0 ack 40 ------- 1 4.0 0.0 4 17
r 6.537043 3 2 ack 40 ------- 1 4.0 0.0 5 18
+ 6.537043 2 0 ack 40 ------- 1 4.0 0.0 5 18
- 6.537043 2 0 ack 40 ------- 1 4.0 0.0 5 18
r 6.537052 3 2 ack 40 ------- 1 4.0 0.0 6 19
+ 6.537052 2 0 ack 40 ------- 1 4.0 0.0 6 19
- 6.537052 2 0 ack 40 ------- 1 4.0 0.0 6 19
r 6.960014 2 1 ack 40 ------- 2 5.0 1.0 1 15
6.96001  1  0  5  0  ack_ 1
6.96001  1  0  5  0  rtt_ 3.480 
6.96001  1  0  5  0  cwnd_ 2.000 
+ 6.960014 1 2 tcp 1040 ------- 2 1.0 5.0 3 21
- 6.960014 1 2 tcp 1040 ------- 2 1.0 5.0 3 21
6.96001  1  0  5  0  maxseq_ 3
r 7.104027 2 0 ack 40 ------- 1 4.0 0.0 3 16
7.10403  0  0  4  0  ack_ 3
7.10403  0  0  4  0  cwnd_ 5.000 
+ 7.104027 0 2 tcp 1040 ------- 1 0.0 4.0 7 22
- 7.104027 0 2 tcp 1040 ------- 1 0.0 4.0 7 22
7.10403  0  0  4  0  maxseq_ 7
+ 7.104027 0 2 tcp 1040 ------- 1 0.0 4.0 8 23
7.10403  0  0  4  0  maxseq_ 8
- 7.104029 0 2 tcp 1040 ------- 1 0.0 4.0 8 23
r 7.104035 2 0 ack 40 ------- 1 4.0 0.0 4 17
7.10404  0  0  4  0  ack_ 4
7.10404  0  0  4  0  cwnd_ 6.000 
+ 7.104035 0 2 tcp 1040 ------- 1 0.0 4.0 9 24
- 7.104035 0 2 tcp 1040 ------- 1 0.0 4.0 9 24
7.10404  0  0  4  0  maxseq_ 9
+ 7.104035 0 2 tcp 1040 ------- 1 0.0 4.0 10 25
7.10404  0  0  4  0  maxseq_ 10
- 7.104037 0 2 tcp 1040 ------- 1 0.0 4.0 10 25
r 7.104044 2 0 ack 40 ------- 1 4.0 0.0 5 18
7.10404  0  0  4  0  ack_ 5
7.10404  0  0  4  0  cwnd_ 7.000 
+ 7.104044 0 2 tcp 1040 ------- 1 0.0 4.0 11 26
- 7.104044 0 2 tcp 1040 ------- 1 0.0 4.0 11 26
7.10404  0  0  4  0  maxseq_ 11
+ 7.104044 0 2 tcp 1040 ------- 1 0.0 4.0 12 27
7.10404  0  0  4  0  maxseq_ 12
- 7.104046 0 2 tcp 1040 ------- 1 0.0 4.0 12 27
r 7.104052 2 0 ack 40 ------- 1 4.0 0.0 6 19
7.10405  0  0  4  0  ack_ 6
7.10405  0  0  4  0  cwnd_ 8.000 
+ 7.104052 0 2 tcp 1040 ------- 1 0.0 4.0 13 28
- 7.104052 0 2 tcp 1040 ------- 1 0.0 4.0 13 28
7.10405  0  0  4  0  maxseq_ 13
+ 7.104052 0 2 tcp 1040 ------- 1 0.0 4.0 14 29
7.10405  0  0  4  0  maxseq_ 14
- 7.104054 0 2 tcp 1040 ------- 1 0.0 4.0 14 29
r 7.325003 1 2 tcp 1040 ------- 2 1.0 5.0 2 20
+ 7.325003 2 3 tcp 1040 ------- 2 1.0 5.0 2 20
- 7.325003 2 3 tcp 1040 ------- 2 1.0 5.0 2 20
r 7.375011 2 3 tcp 1040 ------- 2 1.0 5.0 2 20
+ 7.375011 3 5 tcp 1040 ------- 2 1.0 5.0 2 20
- 7.375011 3 5 tcp 1040 ------- 2 1.0 5.0 2 20
r 7.671029 0 2 tcp 1040 ------- 1 0.0 4.0 7 22
+ 7.671029 2 3 tcp 1040 ------- 1 0.0 4.0 7 22
- 7.671029 2 3 tcp 1040 ------- 1 0.0 4.0 7 22
r 7.671031 0 2 tcp 1040 ------- 1 0.0 4.0 8 23
+ 7.671031 2 3 tcp 1040 ------- 1 0.0 4.0 8 23
r 7.671037 0 2 tcp 1040 ------- 1 0.0 4.0 9 24
+ 7.671037 2 3 tcp 1040 ------- 1 0.0 4.0 9 24
- 7.671037 2 3 tcp 1040 ------- 1 0.0 4.0 8 23
r 7.671039 0 2 tcp 1040 ------- 1 0.0 4.0 10 25
+ 7.671039 2 3 tcp 1040 ------- 1 0.0 4.0 10 25
r 7.671046 0 2 tcp 1040 ------- 1 0.0 4.0 11 26
+ 7.671046 2 3 tcp 1040 ------- 1 0.0 4.0 11 26
- 7.671046 2 3 tcp 1040 ------- 1 0.0 4.0 9 24
r 7.671048 0 2 tcp 1040 ------- 1 0.0 4.0 12 27
+ 7.671048 2 3 tcp 1040 ------- 1 0.0 4.0 12 27
r 7.671054 0 2 tcp 1040 ------- 1 0.0 4.0 13 28
+ 7.671054 2 3 tcp 1040 ------- 1 0.0 4.0 13 28
- 7.671054 2 3 tcp 1040 ------- 1 0.0 4.0 10 25
r 7.671056 0 2 tcp 1040 ------- 1 0.0 4.0 14 29
+ 7.671056 2 3 tcp 1040 ------- 1 0.0 4.0 14 29
- 7.671062 2 3 tcp 1040 ------- 1 0.0 4.0 11 26
- 7.671071 2 3 tcp 1040 ------- 1 0.0 4.0 12 27
- 7.671079 2 3 tcp 1040 ------- 1 0.0 4.0 13 28
- 7.671087 2 3 tcp 1040 ------- 1 0.0 4.0 14 29
r 7.721037 2 3 tcp 1040 ------- 1 0.0 4.0 7 22
+ 7.721037 3 4 tcp 1040 ------- 1 0.0 4.0 7 22
- 7.721037 3 4 tcp 1040 ------- 1 0.0 4.0 7 22
r 7.721046 2 3 tcp 1040 ------- 1 0.0 4.0 8 23
+ 7.721046 3 4 tcp 1040 ------- 1 0.0 4.0 8 23
- 7.721046 3 4 tcp 1040 ------- 1 0.0 4.0 8 23
r 7.721054 2 3 tcp 1040 ------- 1 0.0 4.0 9 24
+ 7.721054 3 4 tcp 1040 ------- 1 0.0 4.0 9 24
- 7.721054 3 4 tcp 1040 ------- 1 0.0 4.0 9 24
r 7.721062 2 3 tcp 1040 ------- 1 0.0 4.0 10 25
+ 7.721062 3 4 tcp 1040 ------- 1 0.0 4.0 10 25
- 7.721062 3 4 tcp 1040 ------- 1 0.0 4.0 10 25
r 7.721071 2 3 tcp 1040 ------- 1 0.0 4.0 11 26
+ 7.721071 3 4 tcp 1040 ------- 1 0.0 4.0 11 26
- 7.721071 3 4 tcp 1040 ------- 1 0.0 4.0 11 26
r 7.721079 2 3 tcp 1040 ------- 1 0.0 4.0 12 27
+ 7.721079 3 4 tcp 1040 ------- 1 0.0 4.0 12 27
- 7.721079 3 4 tcp 1040 ------- 1 0.0 4.0 12 27
r 7.721087 2 3 tcp 1040 ------- 1 0.0 4.0 13 28
+ 7.721087 3 4 tcp 1040 ------- 1 0.0 4.0 13 28
- 7.721087 3 4 tcp 1040 ------- 1 0.0 4.0 13 28
r 7.721096 2 3 tcp 1040 ------- 1 0.0 4.0 14 29
+ 7.721096 3 4 tcp 1040 ------- 1 0.0 4.0 14 29
- 7.721096 3 4 tcp 1040 ------- 1 0.0 4.0 14 29
r 7.805016 1 2 tcp 1040 ------- 2 1.0 5.0 3 21
+ 7.805016 2 3 tcp 1040 ------- 2 1.0 5.0 3 21
- 7.805016 2 3 tcp 1040 ------- 2 1.0 5.0 3 21
r 7.855024 2 3 tcp 1040 ------- 2 1.0 5.0 3 21
+ 7.855024 3 5 tcp 1040 ------- 2 1.0 5.0 3 21
- 7.855024 3 5 tcp 1040 ------- 2 1.0 5.0 3 21
r 8.220013 3 5 tcp 1040 ------- 2 1.0 5.0 2 20
+ 8.220013 5 3 ack 40 ------- 2 5.0 1.0 2 30
- 8.220013 5 3 ack 40 ------- 2 5.0 1.0 2 30
r 8.288039 3 4 tcp 1040 ------- 1 0.0 4.0 7 22
+ 8.288039 4 3 ack 40 ------- 1 4.0 0.0 7 31
- 8.288039 4 3 ack 40 ------- 1 4.0 0.0 7 31
r 8.288048 3 4 tcp 1040 ------- 1 0.0 4.0 8 23
+ 8.288048 4 3 ack 40 ------- 1 4.0 0.0 8 32
- 8.288048 4 3 ack 40 ------- 1 4.0 0.0 8 32
r 8.288056 3 4 tcp 1040 ------- 1 0.0 4.0 9 24
+ 8.288056 4 3 ack 40 ------- 1 4.0 0.0 9 33
- 8.288056 4 3 ack 40 ------- 1 4.0 0.0 9 33
r 8.288064 3 4 tcp 1040 ------- 1 0.0 4.0 10 25
+ 8.288064 4 3 ack 40 ------- 1 4.0 0.0 10 34
- 8.288064 4 3 ack 40 ------- 1 4.0 0.0 10 34
r 8.288073 3 4 tcp 1040 ------- 1 0.0 4.0 11 26
+ 8.288073 4 3 ack 40 ------- 1 4.0 0.0 11 35
- 8.288073 4 3 ack 40 ------- 1 4.0 0.0 11 35
r 8.288081 3 4 tcp 1040 ------- 1 0.0 4.0 12 27
+ 8.288081 4 3 ack 40 ------- 1 4.0 0.0 12 36
- 8.288081 4 3 ack 40 ------- 1 4.0 0.0 12 36
r 8.288089 3 4 tcp 1040 ------- 1 0.0 4.0 13 28
+ 8.288089 4 3 ack 40 ------- 1 4.0 0.0 13 37
- 8.288089 4 3 ack 40 ------- 1 4.0 0.0 13 37
r 8.288098 3 4 tcp 1040 ------- 1 0.0 4.0 14 29
+ 8.288098 4 3 ack 40 ------- 1 4.0 0.0 14 38
- 8.288098 4 3 ack 40 ------- 1 4.0 0.0 14 38
r 8.700026 3 5 tcp 1040 ------- 2 1.0 5.0 3 21
+ 8.700026 5 3 ack 40 ------- 2 5.0 1.0 3 39
- 8.700026 5 3 ack 40 ------- 2 5.0 1.0 3 39
r 8.855039 4 3 ack 40 ------- 1 4.0 0.0 7 31
+ 8.855039 3 2 ack 40 ------- 1 4.0 0.0 7 31
- 8.855039 3 2 ack 40 ------- 1 4.0 0.0 7 31
r 8.855048 4 3 ack 40 ------- 1 4.0 0.0 8 32
+ 8.855048 3 2 ack 40 ------- 1 4.0 0.0 8 32
- 8.855048 3 2 ack 40 ------- 1 4.0 0.0 8 32
r 8.855056 4 3 ack 40 ------- 1 4.0 0.0 9 33
+ 8.855056 3 2 ack 40 ------- 1 4.0 0.0 9 33
- 8.855056 3 2 ack 40 ------- 1 4.0 0.0 9 33
r 8.855064 4 3 ack 40 ------- 1 4.0 0.0 10 34
+ 8.855064 3 2 ack 40 ------- 1 4.0 0.0 10 34
- 8.855064 3 2 ack 40 ------- 1 4.0 0.0 10 34
r 8.855073 4 3 ack 40 ------- 1 4.0 0.0 11 35
+ 8.855073 3 2 ack 40 ------- 1 4.0 0.0 11 35
- 8.855073 3 2 ack 40 ------- 1 4.0 0.0 11 35
r 8.855081 4 3 ack 40 ------- 1 4.0 0.0 12 36
+ 8.855081 3 2 ack 40 ------- 1 4.0 0.0 12 36
- 8.855081 3 2 ack 40 ------- 1 4.0 0.0 12 36
r 8.855089 4 3 ack 40 ------- 1 4.0 0.0 13 37
+ 8.855089 3 2 ack 40 ------- 1 4.0 0.0 13 37
- 8.855089 3 2 ack 40 ------- 1 4.0 0.0 13 37
r 8.855098 4 3 ack 40 ------- 1 4.0 0.0 14 38
+ 8.855098 3 2 ack 40 ------- 1 4.0 0.0 14 38
- 8.855098 3 2 ack 40 ------- 1 4.0 0.0 14 38
r 8.90504 3 2 ack 40 ------- 1 4.0 0.0 7 31
+ 8.90504 2 0 ack 40 ------- 1 4.0 0.0 7 31
- 8.90504 2 0 ack 40 ------- 1 4.0 0.0 7 31
r 8.905048 3 2 ack 40 ------- 1 4.0 0.0 8 32
+ 8.905048 2 0 ack 40 ------- 1 4.0 0.0 8 32
- 8.905048 2 0 ack 40 ------- 1 4.0 0.0 8 32
r 8.905056 3 2 ack 40 ------- 1 4.0 0.0 9 33
+ 8.905056 2 0 ack 40 ------- 1 4.0 0.0 9 33
- 8.905056 2 0 ack 40 ------- 1 4.0 0.0 9 33
r 8.905065 3 2 ack 40 ------- 1 4.0 0.0 10 34
+ 8.905065 2 0 ack 40 ------- 1 4.0 0.0 10 34
- 8.905065 2 0 ack 40 ------- 1 4.0 0.0 10 34
r 8.905073 3 2 ack 40 ------- 1 4.0 0.0 11 35
+ 8.905073 2 0 ack 40 ------- 1 4.0 0.0 11 35
- 8.905073 2 0 ack 40 ------- 1 4.0 0.0 11 35
r 8.905081 3 2 ack 40 ------- 1 4.0 0.0 12 36
+ 8.905081 2 0 ack 40 ------- 1 4.0 0.0 12 36
- 8.905081 2 0 ack 40 ------- 1 4.0 0.0 12 36
r 8.90509 3 2 ack 40 ------- 1 4.0 0.0 13 37
+ 8.90509 2 0 ack 40 ------- 1 4.0 0.0 13 37
- 8.90509 2 0 ack 40 ------- 1 4.0 0.0 13 37
r 8.905098 3 2 ack 40 ------- 1 4.0 0.0 14 38
+ 8.905098 2 0 ack 40 ------- 1 4.0 0.0 14 38
- 8.905098 2 0 ack 40 ------- 1 4.0 0.0 14 38
r 9.065014 5 3 ack 40 ------- 2 5.0 1.0 2 30
+ 9.065014 3 2 ack 40 ------- 2 5.0 1.0 2 30
- 9.065014 3 2 ack 40 ------- 2 5.0 1.0 2 30
r 9.115014 3 2 ack 40 ------- 2 5.0 1.0 2 30
+ 9.115014 2 1 ack 40 ------- 2 5.0 1.0 2 30
- 9.115014 2 1 ack 40 ------- 2 5.0 1.0 2 30
r 9.47204 2 0 ack 40 ------- 1 4.0 0.0 7 31
9.47204  0  0  4  0  ack_ 7
9.47204  0  0  4  0  cwnd_ 9.000 
+ 9.47204 0 2 tcp 1040 ------- 1 0.0 4.0 15 40
- 9.47204 0 2 tcp 1040 ------- 1 0.0 4.0 15 40
9.47204  0  0  4  0  maxseq_ 15
+ 9.47204 0 2 tcp 1040 ------- 1 0.0 4.0 16 41
9.47204  0  0  4  0  maxseq_ 16
- 9.472042 0 2 tcp 1040 ------- 1 0.0 4.0 16 41
r 9.472048 2 0 ack 40 ------- 1 4.0 0.0 8 32
9.47205  0  0  4  0  ack_ 8
9.47205  0  0  4  0  cwnd_ 10.000
+ 9.472048 0 2 tcp 1040 ------- 1 0.0 4.0 17 42
- 9.472048 0 2 tcp 1040 ------- 1 0.0 4.0 17 42
9.47205  0  0  4  0  maxseq_ 17
+ 9.472048 0 2 tcp 1040 ------- 1 0.0 4.0 18 43
9.47205  0  0  4  0  maxseq_ 18
- 9.47205 0 2 tcp 1040 ------- 1 0.0 4.0 18 43
r 9.472056 2 0 ack 40 ------- 1 4.0 0.0 9 33
9.47206  0  0  4  0  ack_ 9
9.47206  0  0  4  0  cwnd_ 11.000
+ 9.472056 0 2 tcp 1040 ------- 1 0.0 4.0 19 44
- 9.472056 0 2 tcp 1040 ------- 1 0.0 4.0 19 44
9.47206  0  0  4  0  maxseq_ 19
+ 9.472056 0 2 tcp 1040 ------- 1 0.0 4.0 20 45
9.47206  0  0  4  0  maxseq_ 20
- 9.472059 0 2 tcp 1040 ------- 1 0.0 4.0 20 45
r 9.472065 2 0 ack 40 ------- 1 4.0 0.0 10 34
9.47206  0  0  4  0  ack_ 10
9.47206  0  0  4  0  cwnd_ 12.000
+ 9.472065 0 2 tcp 1040 ------- 1 0.0 4.0 21 46
- 9.472065 0 2 tcp 1040 ------- 1 0.0 4.0 21 46
9.47206  0  0  4  0  maxseq_ 21
+ 9.472065 0 2 tcp 1040 ------- 1 0.0 4.0 22 47
9.47206  0  0  4  0  maxseq_ 22
- 9.472067 0 2 tcp 1040 ------- 1 0.0 4.0 22 47
r 9.472073 2 0 ack 40 ------- 1 4.0 0.0 11 35
9.47207  0  0  4  0  ack_ 11
9.47207  0  0  4  0  cwnd_ 13.000
+ 9.472073 0 2 tcp 1040 ------- 1 0.0 4.0 23 48
- 9.472073 0 2 tcp 1040 ------- 1 0.0 4.0 23 48
9.47207  0  0  4  0  maxseq_ 23
+ 9.472073 0 2 tcp 1040 ------- 1 0.0 4.0 24 49
9.47207  0  0  4  0  maxseq_ 24
- 9.472075 0 2 tcp 1040 ------- 1 0.0 4.0 24 49
r 9.472081 2 0 ack 40 ------- 1 4.0 0.0 12 36
9.47208  0  0  4  0  ack_ 12
9.47208  0  0  4  0  cwnd_ 14.000
+ 9.472081 0 2 tcp 1040 ------- 1 0.0 4.0 25 50
- 9.472081 0 2 tcp 1040 ------- 1 0.0 4.0 25 50
9.47208  0  0  4  0  maxseq_ 25
+ 9.472081 0 2 tcp 1040 ------- 1 0.0 4.0 26 51
9.47208  0  0  4  0  maxseq_ 26
- 9.472084 0 2 tcp 1040 ------- 1 0.0 4.0 26 51
r 9.47209 2 0 ack 40 ------- 1 4.0 0.0 13 37
9.47209  0  0  4  0  ack_ 13
9.47209  0  0  4  0  cwnd_ 15.000
+ 9.47209 0 2 tcp 1040 ------- 1 0.0 4.0 27 52
- 9.47209 0 2 tcp 1040 ------- 1 0.0 4.0 27 52
9.47209  0  0  4  0  maxseq_ 27
+ 9.47209 0 2 tcp 1040 ------- 1 0.0 4.0 28 53
9.47209  0  0  4  0  maxseq_ 28
- 9.472092 0 2 tcp 1040 ------- 1 0.0 4.0 28 53
r 9.472098 2 0 ack 40 ------- 1 4.0 0.0 14 38
9.47210  0  0  4  0  ack_ 14
9.47210  0  0  4  0  cwnd_ 16.000
+ 9.472098 0 2 tcp 1040 ------- 1 0.0 4.0 29 54
- 9.472098 0 2 tcp 1040 ------- 1 0.0 4.0 29 54
9.47210  0  0  4  0  maxseq_ 29
+ 9.472098 0 2 tcp 1040 ------- 1 0.0 4.0 30 55
9.47210  0  0  4  0  maxseq_ 30
- 9.4721 0 2 tcp 1040 ------- 1 0.0 4.0 30 55
r 9.545026 5 3 ack 40 ------- 2 5.0 1.0 3 39
+ 9.545026 3 2 ack 40 ------- 2 5.0 1.0 3 39
- 9.545026 3 2 ack 40 ------- 2 5.0 1.0 3 39
r 9.595027 3 2 ack 40 ------- 2 5.0 1.0 3 39
+ 9.595027 2 1 ack 40 ------- 2 5.0 1.0 3 39
- 9.595027 2 1 ack 40 ------- 2 5.0 1.0 3 39
r 9.960014 2 1 ack 40 ------- 2 5.0 1.0 2 30
9.96001  1  0  5  0  ack_ 2
9.96001  1  0  5  0  cwnd_ 2.500 
+ 9.960014 1 2 tcp 1040 ------- 2 1.0 5.0 4 56
- 9.960014 1 2 tcp 1040 ------- 2 1.0 5.0 4 56
9.96001  1  0  5  0  maxseq_ 4
r 10.039042 0 2 tcp 1040 ------- 1 0.0 4.0 15 40
+ 10.039042 2 3 tcp 1040 ------- 1 0.0 4.0 15 40
- 10.039042 2 3 tcp 1040 ------- 1 0.0 4.0 15 40
r 10.039044 0 2 tcp 1040 ------- 1 0.0 4.0 16 41
+ 10.039044 2 3 tcp 1040 ------- 1 0.0 4.0 16 41
- 10.03905 2 3 tcp 1040 ------- 1 0.0 4.0 16 41
r 10.03905 0 2 tcp 1040 ------- 1 0.0 4.0 17 42
+ 10.03905 2 3 tcp 1040 ------- 1 0.0 4.0 17 42
r 10.039052 0 2 tcp 1040 ------- 1 0.0 4.0 18 43
+ 10.039052 2 3 tcp 1040 ------- 1 0.0 4.0 18 43
- 10.039059 2 3 tcp 1040 ------- 1 0.0 4.0 17 42
r 10.039059 0 2 tcp 1040 ------- 1 0.0 4.0 19 44
+ 10.039059 2 3 tcp 1040 ------- 1 0.0 4.0 19 44
r 10.039061 0 2 tcp 1040 ------- 1 0.0 4.0 20 45
+ 10.039061 2 3 tcp 1040 ------- 1 0.0 4.0 20 45
- 10.039067 2 3 tcp 1040 ------- 1 0.0 4.0 18 43
r 10.039067 0 2 tcp 1040 ------- 1 0.0 4.0 21 46
+ 10.039067 2 3 tcp 1040 ------- 1 0.0 4.0 21 46
r 10.039069 0 2 tcp 1040 ------- 1 0.0 4.0 22 47
+ 10.039069 2 3 tcp 1040 ------- 1 0.0 4.0 22 47
- 10.039075 2 3 tcp 1040 ------- 1 0.0 4.0 19 44
r 10.039075 0 2 tcp 1040 ------- 1 0.0 4.0 23 48
+ 10.039075 2 3 tcp 1040 ------- 1 0.0 4.0 23 48
r 10.039077 0 2 tcp 1040 ------- 1 0.0 4.0 24 49
+ 10.039077 2 3 tcp 1040 ------- 1 0.0 4.0 24 49
- 10.039084 2 3 tcp 1040 ------- 1 0.0 4.0 20 45
r 10.039084 0 2 tcp 1040 ------- 1 0.0 4.0 25 50
+ 10.039084 2 3 tcp 1040 ------- 1 0.0 4.0 25 50
r 10.039086 0 2 tcp 1040 ------- 1 0.0 4.0 26 51
+ 10.039086 2 3 tcp 1040 ------- 1 0.0 4.0 26 51
- 10.039092 2 3 tcp 1040 ------- 1 0.0 4.0 21 46
r 10.039092 0 2 tcp 1040 ------- 1 0.0 4.0 27 52
+ 10.039092 2 3 tcp 1040 ------- 1 0.0 4.0 27 52
r 10.039094 0 2 tcp 1040 ------- 1 0.0 4.0 28 53
+ 10.039094 2 3 tcp 1040 ------- 1 0.0 4.0 28 53
- 10.0391 2 3 tcp 1040 ------- 1 0.0 4.0 22 47
r 10.0391 0 2 tcp 1040 ------- 1 0.0 4.0 29 54
+ 10.0391 2 3 tcp 1040 ------- 1 0.0 4.0 29 54
r 10.039102 0 2 tcp 1040 ------- 1 0.0 4.0 30 55
+ 10.039102 2 3 tcp 1040 ------- 1 0.0 4.0 30 55
- 10.039108 2 3 tcp 1040 ------- 1 0.0 4.0 23 48
- 10.039117 2 3 tcp 1040 ------- 1 0.0 4.0 24 49
- 10.039125 2 3 tcp 1040 ------- 1 0.0 4.0 25 50
- 10.039133 2 3 tcp 1040 ------- 1 0.0 4.0 26 51
- 10.039142 2 3 tcp 1040 ------- 1 0.0 4.0 27 52
- 10.03915 2 3 tcp 1040 ------- 1 0.0 4.0 28 53
- 10.039158 2 3 tcp 1040 ------- 1 0.0 4.0 29 54
- 10.039167 2 3 tcp 1040 ------- 1 0.0 4.0 30 55
r 10.08905 2 3 tcp 1040 ------- 1 0.0 4.0 15 40
+ 10.08905 3 4 tcp 1040 ------- 1 0.0 4.0 15 40
- 10.08905 3 4 tcp 1040 ------- 1 0.0 4.0 15 40
r 10.089059 2 3 tcp 1040 ------- 1 0.0 4.0 16 41
+ 10.089059 3 4 tcp 1040 ------- 1 0.0 4.0 16 41
- 10.089059 3 4 tcp 1040 ------- 1 0.0 4.0 16 41
r 10.089067 2 3 tcp 1040 ------- 1 0.0 4.0 17 42
+ 10.089067 3 4 tcp 1040 ------- 1 0.0 4.0 17 42
- 10.089067 3 4 tcp 1040 ------- 1 0.0 4.0 17 42
r 10.089075 2 3 tcp 1040 ------- 1 0.0 4.0 18 43
+ 10.089075 3 4 tcp 1040 ------- 1 0.0 4.0 18 43
- 10.089075 3 4 tcp 1040 ------- 1 0.0 4.0 18 43
r 10.089084 2 3 tcp 1040 ------- 1 0.0 4.0 19 44
+ 10.089084 3 4 tcp 1040 ------- 1 0.0 4.0 19 44
- 10.089084 3 4 tcp 1040 ------- 1 0.0 4.0 19 44
r 10.089092 2 3 tcp 1040 ------- 1 0.0 4.0 20 45
+ 10.089092 3 4 tcp 1040 ------- 1 0.0 4.0 20 45
- 10.089092 3 4 tcp 1040 ------- 1 0.0 4.0 20 45
r 10.0891 2 3 tcp 1040 ------- 1 0.0 4.0 21 46
+ 10.0891 3 4 tcp 1040 ------- 1 0.0 4.0 21 46
- 10.0891 3 4 tcp 1040 ------- 1 0.0 4.0 21 46
r 10.089108 2 3 tcp 1040 ------- 1 0.0 4.0 22 47
+ 10.089108 3 4 tcp 1040 ------- 1 0.0 4.0 22 47
- 10.089108 3 4 tcp 1040 ------- 1 0.0 4.0 22 47
r 10.089117 2 3 tcp 1040 ------- 1 0.0 4.0 23 48
+ 10.089117 3 4 tcp 1040 ------- 1 0.0 4.0 23 48
- 10.089117 3 4 tcp 1040 ------- 1 0.0 4.0 23 48
r 10.089125 2 3 tcp 1040 ------- 1 0.0 4.0 24 49
+ 10.089125 3 4 tcp 1040 ------- 1 0.0 4.0 24 49
- 10.089125 3 4 tcp 1040 ------- 1 0.0 4.0 24 49
r 10.089133 2 3 tcp 1040 ------- 1 0.0 4.0 25 50
+ 10.089133 3 4 tcp 1040 ------- 1 0.0 4.0 25 50
- 10.089133 3 4 tcp 1040 ------- 1 0.0 4.0 25 50
r 10.089142 2 3 tcp 1040 ------- 1 0.0 4.0 26 51
+ 10.089142 3 4 tcp 1040 ------- 1 0.0 4.0 26 51
- 10.089142 3 4 tcp 1040 ------- 1 0.0 4.0 26 51
r 10.08915 2 3 tcp 1040 ------- 1 0.0 4.0 27 52
+ 10.08915 3 4 tcp 1040 ------- 1 0.0 4.0 27 52
- 10.08915 3 4 tcp 1040 ------- 1 0.0 4.0 27 52
r 10.089158 2 3 tcp 1040 ------- 1 0.0 4.0 28 53
+ 10.089158 3 4 tcp 1040 ------- 1 0.0 4.0 28 53
- 10.089158 3 4 tcp 1040 ------- 1 0.0 4.0 28 53
r 10.089167 2 3 tcp 1040 ------- 1 0.0 4.0 29 54
+ 10.089167 3 4 tcp 1040 ------- 1 0.0 4.0 29 54
- 10.089167 3 4 tcp 1040 ------- 1 0.0 4.0 29 54
r 10.089175 2 3 tcp 1040 ------- 1 0.0 4.0 30 55
+ 10.089175 3 4 tcp 1040 ------- 1 0.0 4.0 30 55
- 10.089175 3 4 tcp 1040 ------- 1 0.0 4.0 30 55
r 10.440027 2 1 ack 40 ------- 2 5.0 1.0 3 39
10.44003 1  0  5  0  ack_ 3
10.44003 1  0  5  0  cwnd_ 2.900 
+ 10.440027 1 2 tcp 1040 ------- 2 1.0 5.0 5 57
- 10.440027 1 2 tcp 1040 ------- 2 1.0 5.0 5 57
10.44003 1  0  5  0  maxseq_ 5
r 10.656052 3 4 tcp 1040 ------- 1 0.0 4.0 15 40
+ 10.656052 4 3 ack 40 ------- 1 4.0 0.0 15 58
- 10.656052 4 3 ack 40 ------- 1 4.0 0.0 15 58
r 10.656061 3 4 tcp 1040 ------- 1 0.0 4.0 16 41
+ 10.656061 4 3 ack 40 ------- 1 4.0 0.0 16 59
- 10.656061 4 3 ack 40 ------- 1 4.0 0.0 16 59
r 10.656069 3 4 tcp 1040 ------- 1 0.0 4.0 17 42
+ 10.656069 4 3 ack 40 ------- 1 4.0 0.0 17 60
- 10.656069 4 3 ack 40 ------- 1 4.0 0.0 17 60
r 10.656077 3 4 tcp 1040 ------- 1 0.0 4.0 18 43
+ 10.656077 4 3 ack 40 ------- 1 4.0 0.0 18 61
- 10.656077 4 3 ack 40 ------- 1 4.0 0.0 18 61
r 10.656086 3 4 tcp 1040 ------- 1 0.0 4.0 19 44
+ 10.656086 4 3 ack 40 ------- 1 4.0 0.0 19 62
- 10.656086 4 3 ack 40 ------- 1 4.0 0.0 19 62
r 10.656094 3 4 tcp 1040 ------- 1 0.0 4.0 20 45
+ 10.656094 4 3 ack 40 ------- 1 4.0 0.0 20 63
- 10.656094 4 3 ack 40 ------- 1 4.0 0.0 20 63
r 10.656102 3 4 tcp 1040 ------- 1 0.0 4.0 21 46
+ 10.656102 4 3 ack 40 ------- 1 4.0 0.0 21 64
- 10.656102 4 3 ack 40 ------- 1 4.0 0.0 21 64
r 10.656111 3 4 tcp 1040 ------- 1 0.0 4.0 22 47
+ 10.656111 4 3 ack 40 ------- 1 4.0 0.0 22 65
- 10.656111 4 3 ack 40 ------- 1 4.0 0.0 22 65
r 10.656119 3 4 tcp 1040 ------- 1 0.0 4.0 23 48
+ 10.656119 4 3 ack 40 ------- 1 4.0 0.0 23 66
- 10.656119 4 3 ack 40 ------- 1 4.0 0.0 23 66
r 10.656127 3 4 tcp 1040 ------- 1 0.0 4.0 24 49
+ 10.656127 4 3 ack 40 ------- 1 4.0 0.0 24 67
- 10.656127 4 3 ack 40 ------- 1 4.0 0.0 24 67
r 10.656136 3 4 tcp 1040 ------- 1 0.0 4.0 25 50
+ 10.656136 4 3 ack 40 ------- 1 4.0 0.0 25 68
- 10.656136 4 3 ack 40 ------- 1 4.0 0.0 25 68
r 10.656144 3 4 tcp 1040 ------- 1 0.0 4.0 26 51
+ 10.656144 4 3 ack 40 ------- 1 4.0 0.0 26 69
- 10.656144 4 3 ack 40 ------- 1 4.0 0.0 26 69
r 10.656152 3 4 tcp 1040 ------- 1 0.0 4.0 27 52
+ 10.656152 4 3 ack 40 ------- 1 4.0 0.0 27 70
- 10.656152 4 3 ack 40 ------- 1 4.0 0.0 27 70
r 10.65616 3 4 tcp 1040 ------- 1 0.0 4.0 28 53
+ 10.65616 4 3 ack 40 ------- 1 4.0 0.0 28 71
- 10.65616 4 3 ack 40 ------- 1 4.0 0.0 28 71
r 10.656169 3 4 tcp 1040 ------- 1 0.0 4.0 29 54
+ 10.656169 4 3 ack 40 ------- 1 4.0 0.0 29 72
- 10.656169 4 3 ack 40 ------- 1 4.0 0.0 29 72
r 10.656177 3 4 tcp 1040 ------- 1 0.0 4.0 30 55
+ 10.656177 4 3 ack 40 ------- 1 4.0 0.0 30 73
- 10.656177 4 3 ack 40 ------- 1 4.0 0.0 30 73
r 10.805016 1 2 tcp 1040 ------- 2 1.0 5.0 4 56
+ 10.805016 2 3 tcp 1040 ------- 2 1.0 5.0 4 56
- 10.805016 2 3 tcp 1040 ------- 2 1.0 5.0 4 56
r 10.855024 2 3 tcp 1040 ------- 2 1.0 5.0 4 56
+ 10.855024 3 5 tcp 1040 ------- 2 1.0 5.0 4 56
- 10.855024 3 5 tcp 1040 ------- 2 1.0 5.0 4 56
r 11.223052 4 3 ack 40 ------- 1 4.0 0.0 15 58
+ 11.223052 3 2 ack 40 ------- 1 4.0 0.0 15 58
- 11.223052 3 2 ack 40 ------- 1 4.0 0.0 15 58
r 11.223061 4 3 ack 40 ------- 1 4.0 0.0 16 59
+ 11.223061 3 2 ack 40 ------- 1 4.0 0.0 16 59
- 11.223061 3 2 ack 40 ------- 1 4.0 0.0 16 59
r 11.223069 4 3 ack 40 ------- 1 4.0 0.0 17 60
+ 11.223069 3 2 ack 40 ------- 1 4.0 0.0 17 60
- 11.223069 3 2 ack 40 ------- 1 4.0 0.0 17 60
r 11.223077 4 3 ack 40 ------- 1 4.0 0.0 18 61
+ 11.223077 3 2 ack 40 ------- 1 4.0 0.0 18 61
- 11.223077 3 2 ack 40 ------- 1 4.0 0.0 18 61
r 11.223086 4 3 ack 40 ------- 1 4.0 0.0 19 62
+ 11.223086 3 2 ack 40 ------- 1 4.0 0.0 19 62
- 11.223086 3 2 ack 40 ------- 1 4.0 0.0 19 62
r 11.223094 4 3 ack 40 ------- 1 4.0 0.0 20 63
+ 11.223094 3 2 ack 40 ------- 1 4.0 0.0 20 63
- 11.223094 3 2 ack 40 ------- 1 4.0 0.0 20 63
r 11.223102 4 3 ack 40 ------- 1 4.0 0.0 21 64
+ 11.223102 3 2 ack 40 ------- 1 4.0 0.0 21 64
- 11.223102 3 2 ack 40 ------- 1 4.0 0.0 21 64
r 11.223111 4 3 ack 40 ------- 1 4.0 0.0 22 65
+ 11.223111 3 2 ack 40 ------- 1 4.0 0.0 22 65
- 11.223111 3 2 ack 40 ------- 1 4.0 0.0 22 65
r 11.223119 4 3 ack 40 ------- 1 4.0 0.0 23 66
+ 11.223119 3 2 ack 40 ------- 1 4.0 0.0 23 66
- 11.223119 3 2 ack 40 ------- 1 4.0 0.0 23 66
r 11.223127 4 3 ack 40 ------- 1 4.0 0.0 24 67
+ 11.223127 3 2 ack 40 ------- 1 4.0 0.0 24 67
- 11.223127 3 2 ack 40 ------- 1 4.0 0.0 24 67
r 11.223136 4 3 ack 40 ------- 1 4.0 0.0 25 68
+ 11.223136 3 2 ack 40 ------- 1 4.0 0.0 25 68
- 11.223136 3 2 ack 40 ------- 1 4.0 0.0 25 68
r 11.223144 4 3 ack 40 ------- 1 4.0 0.0 26 69
+ 11.223144 3 2 ack 40 ------- 1 4.0 0.0 26 69
- 11.223144 3 2 ack 40 ------- 1 4.0 0.0 26 69
r 11.223152 4 3 ack 40 ------- 1 4.0 0.0 27 70