0.00000  0  0  4  0  cwnd_ 1.000 
0.00000  0  0  4  0  ssthresh_ 20
0.00000  0  0  4  0  ack_ -1
0.00000  0  0  4  0  maxseq_ -1
0.00000  0  0  4  0  rtt_ 0.000 
0.00000  1  0  5  0  cwnd_ 1.000 
0.00000  1  0  5  0  ssthresh_ 20
0.00000  1  0  5  0  ack_ -1
0.00000  1  0  5  0  maxseq_ -1
0.00000  1  0  5  0  rtt_ 0.000 
0.00000  0  0  4  0  ssthresh_ 1000
0.00000  1  0  5  0  ssthresh_ 1000
+ 0 1 2 tcp 40 ------- 2 1.0 5.0 0 0
- 0 1 2 tcp 40 ------- 2 1.0 5.0 0 0
0.00000  1  0  5  0  maxseq_ 0
+ 0 0 2 tcp 40 ------- 1 0.0 4.0 0 1
- 0 0 2 tcp 40 ------- 1 0.0 4.0 0 1
0.00000  0  0  4  0  maxseq_ 0
r 0.556 0 2 tcp 40 ------- 1 0.0 4.0 0 1
+ 0.556 2 3 tcp 40 ------- 1 0.0 4.0 0 1
- 0.556 2 3 tcp 40 ------- 1 0.0 4.0 0 1
r 0.606 2 3 tcp 40 ------- 1 0.0 4.0 0 1
+ 0.606 3 4 tcp 40 ------- 1 0.0 4.0 0 1
- 0.606 3 4 tcp 40 ------- 1 0.0 4.0 0 1
r 0.834 1 2 tcp 40 ------- 2 1.0 5.0 0 0
+ 0.834 2 3 tcp 40 ------- 2 1.0 5.0 0 0
- 0.834 2 3 tcp 40 ------- 2 1.0 5.0 0 0
r 0.884 2 3 tcp 40 ------- 2 1.0 5.0 0 0
+ 0.884 3 5 tcp 40 ------- 2 1.0 5.0 0 0
- 0.884 3 5 tcp 40 ------- 2 1.0 5.0 0 0
r 1.162 3 4 tcp 40 ------- 1 0.0 4.0 0 1
+ 1.162 4 3 ack 40 ------- 1 4.0 0.0 0 2
- 1.162 4 3 ack 40 ------- 1 4.0 0.0 0 2
r 1.718 3 5 tcp 40 ------- 2 1.0 5.0 0 0
+ 1.718 5 3 ack 40 ------- 2 5.0 1.0 0 3
- 1.718 5 3 ack 40 ------- 2 5.0 1.0 0 3
r 1.718001 4 3 ack 40 ------- 1 4.0 0.0 0 2
+ 1.718001 3 2 ack 40 ------- 1 4.0 0.0 0 2
- 1.718001 3 2 ack 40 ------- 1 4.0 0.0 0 2
r 1.768001 3 2 ack 40 ------- 1 4.0 0.0 0 2
+ 1.768001 2 0 ack 40 ------- 1 4.0 0.0 0 2
- 1.768001 2 0 ack 40 ------- 1 4.0 0.0 0 2
r 2.324001 2 0 ack 40 ------- 1 4.0 0.0 0 2
2.32400  0  0  4  0  ack_ 0
2.32400  0  0  4  0  rtt_ 2.320 
2.32400  0  0  4  0  cwnd_ 2.000 
+ 2.324001 0 2 tcp 1040 ------- 1 0.0 4.0 1 4
- 2.324001 0 2 tcp 1040 ------- 1 0.0 4.0 1 4
2.32400  0  0  4  0  maxseq_ 1
+ 2.324001 0 2 tcp 1040 ------- 1 0.0 4.0 2 5
2.32400  0  0  4  0  maxseq_ 2
- 2.324003 0 2 tcp 1040 ------- 1 0.0 4.0 2 5
r 2.552001 5 3 ack 40 ------- 2 5.0 1.0 0 3
+ 2.552001 3 2 ack 40 ------- 2 5.0 1.0 0 3
- 2.552001 3 2 ack 40 ------- 2 5.0 1.0 0 3
r 2.602001 3 2 ack 40 ------- 2 5.0 1.0 0 3
+ 2.602001 2 1 ack 40 ------- 2 5.0 1.0 0 3
- 2.602001 2 1 ack 40 ------- 2 5.0 1.0 0 3
r 2.880003 0 2 tcp 1040 ------- 1 0.0 4.0 1 4
+ 2.880003 2 3 tcp 1040 ------- 1 0.0 4.0 1 4
- 2.880003 2 3 tcp 1040 ------- 1 0.0 4.0 1 4
r 2.880005 0 2 tcp 1040 ------- 1 0.0 4.0 2 5
+ 2.880005 2 3 tcp 1040 ------- 1 0.0 4.0 2 5
- 2.880011 2 3 tcp 1040 ------- 1 0.0 4.0 2 5
r 2.930011 2 3 tcp 1040 ------- 1 0.0 4.0 1 4
+ 2.930011 3 4 tcp 1040 ------- 1 0.0 4.0 1 4
- 2.930011 3 4 tcp 1040 ------- 1 0.0 4.0 1 4
r 2.93002 2 3 tcp 1040 ------- 1 0.0 4.0 2 5
+ 2.93002 3 4 tcp 1040 ------- 1 0.0 4.0 2 5
- 2.93002 3 4 tcp 1040 ------- 1 0.0 4.0 2 5
3.00000  1  0  5  0  ssthresh_ 0
3.00000  1  0  5  0  ssthresh_ 2
+ 3 1 2 tcp 40 ---A--- 2 1.0 5.0 0 6
- 3 1 2 tcp 40 ---A--- 2 1.0 5.0 0 6
r 3.436001 2 1 ack 40 ------- 2 5.0 1.0 0 3
3.43600  1  0  5  0  ack_ 0
3.43600  1  0  5  0  cwnd_ 2.000 
3.43600  1  0  5  0  cwnd_ 1.000 
+ 3.436001 1 2 tcp 1040 ------- 2 1.0 5.0 1 7
- 3.436001 1 2 tcp 1040 ------- 2 1.0 5.0 1 7
3.43600  1  0  5  0  maxseq_ 1
r 3.486013 3 4 tcp 1040 ------- 1 0.0 4.0 1 4
+ 3.486013 4 3 ack 40 ------- 1 4.0 0.0 1 8
- 3.486013 4 3 ack 40 ------- 1 4.0 0.0 1 8
r 3.486022 3 4 tcp 1040 ------- 1 0.0 4.0 2 5
+ 3.486022 4 3 ack 40 ------- 1 4.0 0.0 2 9
- 3.486022 4 3 ack 40 ------- 1 4.0 0.0 2 9
r 3.834 1 2 tcp 40 ---A--- 2 1.0 5.0 0 6
+ 3.834 2 3 tcp 40 ---A--- 2 1.0 5.0 0 6
- 3.834 2 3 tcp 40 ---A--- 2 1.0 5.0 0 6
r 3.884 2 3 tcp 40 ---A--- 2 1.0 5.0 0 6
+ 3.884 3 5 tcp 40 ---A--- 2 1.0 5.0 0 6
- 3.884 3 5 tcp 40 ---A--- 2 1.0 5.0 0 6
r 4.042014 4 3 ack 40 ------- 1 4.0 0.0 1 8
+ 4.042014 3 2 ack 40 ------- 1 4.0 0.0 1 8
- 4.042014 3 2 ack 40 ------- 1 4.0 0.0 1 8
r 4.042022 4 3 ack 40 ------- 1 4.0 0.0 2 9
+ 4.042022 3 2 ack 40 ------- 1 4.0 0.0 2 9
- 4.042022 3 2 ack 40 ------- 1 4.0 0.0 2 9
r 4.092014 3 2 ack 40 ------- 1 4.0 0.0 1 8
+ 4.092014 2 0 ack 40 ------- 1 4.0 0.0 1 8
- 4.092014 2 0 ack 40 ------- 1 4.0 0.0 1 8
r 4.092022 3 2 ack 40 ------- 1 4.0 0.0 2 9
+ 4.092022 2 0 ack 40 ------- 1 4.0 0.0 2 9
- 4.092022 2 0 ack 40 ------- 1 4.0 0.0 2 9
r 4.270003 1 2 tcp 1040 ------- 2 1.0 5.0 1 7
+ 4.270003 2 3 tcp 1040 ------- 2 1.0 5.0 1 7
- 4.270003 2 3 tcp 1040 ------- 2 1.0 5.0 1 7
r 4.320011 2 3 tcp 1040 ------- 2 1.0 5.0 1 7
+ 4.320011 3 5 tcp 1040 ------- 2 1.0 5.0 1 7
- 4.320011 3 5 tcp 1040 ------- 2 1.0 5.0 1 7
r 4.648014 2 0 ack 40 ------- 1 4.0 0.0 1 8
4.64801  0  0  4  0  ack_ 1
4.64801  0  0  4  0  cwnd_ 3.000 
+ 4.648014 0 2 tcp 1040 ------- 1 0.0 4.0 3 10
- 4.648014 0 2 tcp 1040 ------- 1 0.0 4.0 3 10
4.64801  0  0  4  0  maxseq_ 3
+ 4.648014 0 2 tcp 1040 ------- 1 0.0 4.0 4 11
4.64801  0  0  4  0  maxseq_ 4
- 4.648016 0 2 tcp 1040 ------- 1 0.0 4.0 4 11
r 4.648022 2 0 ack 40 ------- 1 4.0 0.0 2 9
4.64802  0  0  4  0  ack_ 2
4.64802  0  0  4  0  cwnd_ 4.000 
+ 4.648022 0 2 tcp 1040 ------- 1 0.0 4.0 5 12
- 4.648022 0 2 tcp 1040 ------- 1 0.0 4.0 5 12
4.64802  0  0  4  0  maxseq_ 5
+ 4.648022 0 2 tcp 1040 ------- 1 0.0 4.0 6 13
4.64802  0  0  4  0  maxseq_ 6
- 4.648024 0 2 tcp 1040 ------- 1 0.0 4.0 6 13
r 4.718 3 5 tcp 40 ---A--- 2 1.0 5.0 0 6
+ 4.718 5 3 ack 40 ------- 2 5.0 1.0 0 14
- 4.718 5 3 ack 40 ------- 2 5.0 1.0 0 14
r 5.154013 3 5 tcp 1040 ------- 2 1.0 5.0 1 7
+ 5.154013 5 3 ack 40 ------- 2 5.0 1.0 1 15
- 5.154013 5 3 ack 40 ------- 2 5.0 1.0 1 15
r 5.204016 0 2 tcp 1040 ------- 1 0.0 4.0 3 10
+ 5.204016 2 3 tcp 1040 ------- 1 0.0 4.0 3 10
- 5.204016 2 3 tcp 1040 ------- 1 0.0 4.0 3 10
r 5.204018 0 2 tcp 1040 ------- 1 0.0 4.0 4 11
+ 5.204018 2 3 tcp 1040 ------- 1 0.0 4.0 4 11
- 5.204024 2 3 tcp 1040 ------- 1 0.0 4.0 4 11
r 5.204024 0 2 tcp 1040 ------- 1 0.0 4.0 5 12
+ 5.204024 2 3 tcp 1040 ------- 1 0.0 4.0 5 12
r 5.204026 0 2 tcp 1040 ------- 1 0.0 4.0 6 13
+ 5.204026 2 3 tcp 1040 ------- 1 0.0 4.0 6 13
- 5.204033 2 3 tcp 1040 ------- 1 0.0 4.0 5 12
- 5.204041 2 3 tcp 1040 ------- 1 0.0 4.0 6 13
r 5.254024 2 3 tcp 1040 ------- 1 0.0 4.0 3 10
+ 5.254024 3 4 tcp 1040 ------- 1 0.0 4.0 3 10
- 5.254024 3 4 tcp 1040 ------- 1 0.0 4.0 3 10
r 5.254033 2 3 tcp 1040 ------- 1 0.0 4.0 4 11
+ 5.254033 3 4 tcp 1040 ------- 1 0.0 4.0 4 11
- 5.254033 3 4 tcp 1040 ------- 1 0.0 4.0 4 11
r 5.254041 2 3 tcp 1040 ------- 1 0.0 4.0 5 12
+ 5.254041 3 4 tcp 1040 ------- 1 0.0 4.0 5 12
- 5.254041 3 4 tcp 1040 ------- 1 0.0 4.0 5 12
r 5.254049 2 3 tcp 1040 ------- 1 0.0 4.0 6 13
+ 5.254049 3 4 tcp 1040 ------- 1 0.0 4.0 6 13
- 5.254049 3 4 tcp 1040 ------- 1 0.0 4.0 6 13
r 5.552001 5 3 ack 40 ------- 2 5.0 1.0 0 14
+ 5.552001 3 2 ack 40 ------- 2 5.0 1.0 0 14
- 5.552001 3 2 ack 40 ------- 2 5.0 1.0 0 14
r 5.602001 3 2 ack 40 ------- 2 5.0 1.0 0 14
+ 5.602001 2 1 ack 40 ------- 2 5.0 1.0 0 14
- 5.602001 2 1 ack 40 ------- 2 5.0 1.0 0 14
r 5.810026 3 4 tcp 1040 ------- 1 0.0 4.0 3 10
+ 5.810026 4 3 ack 40 ------- 1 4.0 0.0 3 16
- 5.810026 4 3 ack 40 ------- 1 4.0 0.0 3 16
r 5.810035 3 4 tcp 1040 ------- 1 0.0 4.0 4 11
+ 5.810035 4 3 ack 40 ------- 1 4.0 0.0 4 17
- 5.810035 4 3 ack 40 ------- 1 4.0 0.0 4 17
r 5.810043 3 4 tcp 1040 ------- 1 0.0 4.0 5 12
+ 5.810043 4 3 ack 40 ------- 1 4.0 0.0 5 18
- 5.810043 4 3 ack 40 ------- 1 4.0 0.0 5 18
r 5.810051 3 4 tcp 1040 ------- 1 0.0 4.0 6 13
+ 5.810051 4 3 ack 40 ------- 1 4.0 0.0 6 19
- 5.810051 4 3 ack 40 ------- 1 4.0 0.0 6 19
r 5.988014 5 3 ack 40 ------- 2 5.0 1.0 1 15
+ 5.988014 3 2 ack 40 ------- 2 5.0 1.0 1 15
- 5.988014 3 2 ack 40 ------- 2 5.0 1.0 1 15
r 6.038014 3 2 ack 40 ------- 2 5.0 1.0 1 15
+ 6.038014 2 1 ack 40 ------- 2 5.0 1.0 1 15
- 6.038014 2 1 ack 40 ------- 2 5.0 1.0 1 15
r 6.366026 4 3 ack 40 ------- 1 4.0 0.0 3 16
+ 6.366026 3 2 ack 40 ------- 1 4.0 0.0 3 16
- 6.366026 3 2 ack 40 ------- 1 4.0 0.0 3 16
r 6.366035 4 3 ack 40 ------- 1 4.0 0.0 4 17
+ 6.366035 3 2 ack 40 ------- 1 4.0 0.0 4 17
- 6.366035 3 2 ack 40 ------- 1 4.0 0.0 4 17
r 6.366043 4 3 ack 40 ------- 1 4.0 0.0 5 18
+ 6.366043 3 2 ack 40 ------- 1 4.0 0.0 5 18
- 6.366043 3 2 ack 40 ------- 1 4.0 0.0 5 18
r 6.366051 4 3 ack 40 ------- 1 4.0 0.0 6 19
+ 6.366051 3 2 ack 40 ------- 1 4.0 0.0 6 19
- 6.366051 3 2 ack 40 ------- 1 4.0 0.0 6 19
r 6.416027 3 2 ack 40 ------- 1 4.0 0.0 3 16
+ 6.416027 2 0 ack 40 ------- 1 4.0 0.0 3 16
- 6.416027 2 0 ack 40 ------- 1 4.0 0.0 3 16
r 6.416035 3 2 ack 40 ------- 1 4.0 0.0 4 17
+ 6.416035 2 0 ack 40 ------- 1 4.0 0.0 4 17
- 6.416035 2 0 ack 40 ------- 1 4.0 0.0 4 17
r 6.416043 3 2 ack 40 ------- 1 4.0 0.0 5 18
+ 6.416043 2 0 ack 40 ------- 1 4.0 0.0 5 18
- 6.416043 2 0 ack 40 ------- 1 4.0 0.0 5 18
r 6.416052 3 2 ack 40 ------- 1 4.0 0.0 6 19
+ 6.416052 2 0 ack 40 ------- 1 4.0 0.0 6 19
- 6.416052 2 0 ack 40 ------- 1 4.0 0.0 6 19
r 6.436001 2 1 ack 40 ------- 2 5.0 1.0 0 14
+ 6.436001 1 2 tcp 1040 ------- 2 1.0 5.0 2 20
- 6.436001 1 2 tcp 1040 ------- 2 1.0 5.0 2 20
6.43600  1  0  5  0  maxseq_ 2
r 6.872014 2 1 ack 40 ------- 2 5.0 1.0 1 15
6.87201  1  0  5  0  ack_ 1
6.87201  1  0  5  0  rtt_ 3.440 
6.87201  1  0  5  0  cwnd_ 2.000 
+ 6.872014 1 2 tcp 1040 ------- 2 1.0 5.0 3 21
- 6.872014 1 2 tcp 1040 ------- 2 1.0 5.0 3 21
6.87201  1  0  5  0  maxseq_ 3
r 6.972027 2 0 ack 40 ------- 1 4.0 0.0 3 16
6.97203  0  0  4  0  ack_ 3
6.97203  0  0  4  0  rtt_ 2.330 
6.97203  0  0  4  0  cwnd_ 5.000 
+ 6.972027 0 2 tcp 1040 ------- 1 0.0 4.0 7 22
- 6.972027 0 2 tcp 1040 ------- 1 0.0 4.0 7 22
6.97203  0  0  4  0  maxseq_ 7
+ 6.972027 0 2 tcp 1040 ------- 1 0.0 4.0 8 23
6.97203  0  0  4  0  maxseq_ 8
- 6.972029 0 2 tcp 1040 ------- 1 0.0 4.0 8 23
r 6.972035 2 0 ack 40 ------- 1 4.0 0.0 4 17
6.97204  0  0  4  0  ack_ 4
6.97204  0  0  4  0  cwnd_ 6.000 
+ 6.972035 0 2 tcp 1040 ------- 1 0.0 4.0 9 24
- 6.972035 0 2 tcp 1040 ------- 1 0.0 4.0 9 24
6.97204  0  0  4  0  maxseq_ 9
+ 6.972035 0 2 tcp 1040 ------- 1 0.0 4.0 10 25
6.97204  0  0  4  0  maxseq_ 10
- 6.972037 0 2 tcp 1040 ------- 1 0.0 4.0 10 25
r 6.972044 2 0 ack 40 ------- 1 4.0 0.0 5 18
6.97204  0  0  4  0  ack_ 5
6.97204  0  0  4  0  cwnd_ 7.000 
+ 6.972044 0 2 tcp 1040 ------- 1 0.0 4.0 11 26
- 6.972044 0 2 tcp 1040 ------- 1 0.0 4.0 11 26
6.97204  0  0  4  0  maxseq_ 11
+ 6.972044 0 2 tcp 1040 ------- 1 0.0 4.0 12 27
6.97204  0  0  4  0  maxseq_ 12
- 6.972046 0 2 tcp 1040 ------- 1 0.0 4.0 12 27
r 6.972052 2 0 ack 40 ------- 1 4.0 0.0 6 19
6.97205  0  0  4  0  ack_ 6
6.97205  0  0  4  0  cwnd_ 8.000 
+ 6.972052 0 2 tcp 1040 ------- 1 0.0 4.0 13 28
- 6.972052 0 2 tcp 1040 ------- 1 0.0 4.0 13 28
6.97205  0  0  4  0  maxseq_ 13
+ 6.972052 0 2 tcp 1040 ------- 1 0.0 4.0 14 29
6.97205  0  0  4  0  maxseq_ 14
- 6.972054 0 2 tcp 1040 ------- 1 0.0 4.0 14 29
r 7.270003 1 2 tcp 1040 ------- 2 1.0 5.0 2 20
+ 7.270003 2 3 tcp 1040 ------- 2 1.0 5.0 2 20
- 7.270003 2 3 tcp 1040 ------- 2 1.0 5.0 2 20
r 7.320011 2 3 tcp 1040 ------- 2 1.0 5.0 2 20
+ 7.320011 3 5 tcp 1040 ------- 2 1.0 5.0 2 20
- 7.320011 3 5 tcp 1040 ------- 2 1.0 5.0 2 20
r 7.528029 0 2 tcp 1040 ------- 1 0.0 4.0 7 22
+ 7.528029 2 3 tcp 1040 ------- 1 0.0 4.0 7 22
- 7.528029 2 3 tcp 1040 ------- 1 0.0 4.0 7 22
r 7.528031 0 2 tcp 1040 ------- 1 0.0 4.0 8 23
+ 7.528031 2 3 tcp 1040 ------- 1 0.0 4.0 8 23
r 7.528037 0 2 tcp 1040 ------- 1 0.0 4.0 9 24
+ 7.528037 2 3 tcp 1040 ------- 1 0.0 4.0 9 24
- 7.528037 2 3 tcp 1040 ------- 1 0.0 4.0 8 23
r 7.528039 0 2 tcp 1040 ------- 1 0.0 4.0 10 25
+ 7.528039 2 3 tcp 1040 ------- 1 0.0 4.0 10 25
r 7.528046 0 2 tcp 1040 ------- 1 0.0 4.0 11 26
+ 7.528046 2 3 tcp 1040 ------- 1 0.0 4.0 11 26
- 7.528046 2 3 tcp 1040 ------- 1 0.0 4.0 9 24
r 7.528048 0 2 tcp 1040 ------- 1 0.0 4.0 12 27
+ 7.528048 2 3 tcp 1040 ------- 1 0.0 4.0 12 27
r 7.528054 0 2 tcp 1040 ------- 1 0.0 4.0 13 28
+ 7.528054 2 3 tcp 1040 ------- 1 0.0 4.0 13 28
- 7.528054 2 3 tcp 1040 ------- 1 0.0 4.0 10 25
r 7.528056 0 2 tcp 1040 ------- 1 0.0 4.0 14 29
+ 7.528056 2 3 tcp 1040 ------- 1 0.0 4.0 14 29
- 7.528062 2 3 tcp 1040 ------- 1 0.0 4.0 11 26
- 7.528071 2 3 tcp 1040 ------- 1 0.0 4.0 12 27
- 7.528079 2 3 tcp 1040 ------- 1 0.0 4.0 13 28
- 7.528087 2 3 tcp 1040 ------- 1 0.0 4.0 14 29
r 7.578037 2 3 tcp 1040 ------- 1 0.0 4.0 7 22
+ 7.578037 3 4 tcp 1040 ------- 1 0.0 4.0 7 22
- 7.578037 3 4 tcp 1040 ------- 1 0.0 4.0 7 22
r 7.578046 2 3 tcp 1040 ------- 1 0.0 4.0 8 23
+ 7.578046 3 4 tcp 1040 ------- 1 0.0 4.0 8 23
- 7.578046 3 4 tcp 1040 ------- 1 0.0 4.0 8 23
r 7.578054 2 3 tcp 1040 ------- 1 0.0 4.0 9 24
+ 7.578054 3 4 tcp 1040 ------- 1 0.0 4.0 9 24
- 7.578054 3 4 tcp 1040 ------- 1 0.0 4.0 9 24
r 7.578062 2 3 tcp 1040 ------- 1 0.0 4.0 10 25
+ 7.578062 3 4 tcp 1040 ------- 1 0.0 4.0 10 25
- 7.578062 3 4 tcp 1040 ------- 1 0.0 4.0 10 25
r 7.578071 2 3 tcp 1040 ------- 1 0.0 4.0 11 26
+ 7.578071 3 4 tcp 1040 ------- 1 0.0 4.0 11 26
- 7.578071 3 4 tcp 1040 ------- 1 0.0 4.0 11 26
r 7.578079 2 3 tcp 1040 ------- 1 0.0 4.0 12 27
+ 7.578079 3 4 tcp 1040 ------- 1 0.0 4.0 12 27
- 7.578079 3 4 tcp 1040 ------- 1 0.0 4.0 12 27
r 7.578087 2 3 tcp 1040 ------- 1 0.0 4.0 13 28
+ 7.578087 3 4 tcp 1040 ------- 1 0.0 4.0 13 28
- 7.578087 3 4 tcp 1040 ------- 1 0.0 4.0 13 28
r 7.578096 2 3 tcp 1040 ------- 1 0.0 4.0 14 29
+ 7.578096 3 4 tcp 1040 ------- 1 0.0 4.0 14 29
- 7.578096 3 4 tcp 1040 ------- 1 0.0 4.0 14 29
r 7.706016 1 2 tcp 1040 ------- 2 1.0 5.0 3 21
+ 7.706016 2 3 tcp 1040 ------- 2 1.0 5.0 3 21
- 7.706016 2 3 tcp 1040 ------- 2 1.0 5.0 3 21
r 7.756024 2 3 tcp 1040 ------- 2 1.0 5.0 3 21
+ 7.756024 3 5 tcp 1040 ------- 2 1.0 5.0 3 21
- 7.756024 3 5 tcp 1040 ------- 2 1.0 5.0 3 21
r 8.134039 3 4 tcp 1040 ------- 1 0.0 4.0 7 22
+ 8.134039 4 3 ack 40 ------- 1 4.0 0.0 7 30
- 8.134039 4 3 ack 40 ------- 1 4.0 0.0 7 30
r 8.134048 3 4 tcp 1040 ------- 1 0.0 4.0 8 23
+ 8.134048 4 3 ack 40 ------- 1 4.0 0.0 8 31
- 8.134048 4 3 ack 40 ------- 1 4.0 0.0 8 31
r 8.134056 3 4 tcp 1040 ------- 1 0.0 4.0 9 24
+ 8.134056 4 3 ack 40 ------- 1 4.0 0.0 9 32
- 8.134056 4 3 ack 40 ------- 1 4.0 0.0 9 32
r 8.134064 3 4 tcp 1040 ------- 1 0.0 4.0 10 25
+ 8.134064 4 3 ack 40 ------- 1 4.0 0.0 10 33
- 8.134064 4 3 ack 40 ------- 1 4.0 0.0 10 33
r 8.134073 3 4 tcp 1040 ------- 1 0.0 4.0 11 26
+ 8.134073 4 3 ack 40 ------- 1 4.0 0.0 11 34
- 8.134073 4 3 ack 40 ------- 1 4.0 0.0 11 34
r 8.134081 3 4 tcp 1040 ------- 1 0.0 4.0 12 27
+ 8.134081 4 3 ack 40 ------- 1 4.0 0.0 12 35
- 8.134081 4 3 ack 40 ------- 1 4.0 0.0 12 35
r 8.134089 3 4 tcp 1040 ------- 1 0.0 4.0 13 28
+ 8.134089 4 3 ack 40 ------- 1 4.0 0.0 13 36
- 8.134089 4 3 ack 40 ------- 1 4.0 0.0 13 36
r 8.134098 3 4 tcp 1040 ------- 1 0.0 4.0 14 29
+ 8.134098 4 3 ack 40 ------- 1 4.0 0.0 14 37
- 8.134098 4 3 ack 40 ------- 1 4.0 0.0 14 37
r 8.154013 3 5 tcp 1040 ------- 2 1.0 5.0 2 20
+ 8.154013 5 3 ack 40 ------- 2 5.0 1.0 2 38
- 8.154013 5 3 ack 40 ------- 2 5.0 1.0 2 38
r 8.590026 3 5 tcp 1040 ------- 2 1.0 5.0 3 21
+ 8.590026 5 3 ack 40 ------- 2 5.0 1.0 3 39
- 8.590026 5 3 ack 40 ------- 2 5.0 1.0 3 39
r 8.690039 4 3 ack 40 ------- 1 4.0 0.0 7 30
+ 8.690039 3 2 ack 40 ------- 1 4.0 0.0 7 30
- 8.690039 3 2 ack 40 ------- 1 4.0 0.0 7 30
r 8.690048 4 3 ack 40 ------- 1 4.0 0.0 8 31
+ 8.690048 3 2 ack 40 ------- 1 4.0 0.0 8 31
- 8.690048 3 2 ack 40 ------- 1 4.0 0.0 8 31
r 8.690056 4 3 ack 40 ------- 1 4.0 0.0 9 32
+ 8.690056 3 2 ack 40 ------- 1 4.0 0.0 9 32
- 8.690056 3 2 ack 40 ------- 1 4.0 0.0 9 32
r 8.690064 4 3 ack 40 ------- 1 4.0 0.0 10 33
+ 8.690064 3 2 ack 40 ------- 1 4.0 0.0 10 33
- 8.690064 3 2 ack 40 ------- 1 4.0 0.0 10 33
r 8.690073 4 3 ack 40 ------- 1 4.0 0.0 11 34
+ 8.690073 3 2 ack 40 ------- 1 4.0 0.0 11 34
- 8.690073 3 2 ack 40 ------- 1 4.0 0.0 11 34
r 8.690081 4 3 ack 40 ------- 1 4.0 0.0 12 35
+ 8.690081 3 2 ack 40 ------- 1 4.0 0.0 12 35
- 8.690081 3 2 ack 40 ------- 1 4.0 0.0 12 35
r 8.690089 4 3 ack 40 ------- 1 4.0 0.0 13 36
+ 8.690089 3 2 ack 40 ------- 1 4.0 0.0 13 36
- 8.690089 3 2 ack 40 ------- 1 4.0 0.0 13 36
r 8.690098 4 3 ack 40 ------- 1 4.0 0.0 14 37
+ 8.690098 3 2 ack 40 ------- 1 4.0 0.0 14 37
- 8.690098 3 2 ack 40 ------- 1 4.0 0.0 14 37
r 8.74004 3 2 ack 40 ------- 1 4.0 0.0 7 30
+ 8.74004 2 0 ack 40 ------- 1 4.0 0.0 7 30
- 8.74004 2 0 ack 40 ------- 1 4.0 0.0 7 30
r 8.740048 3 2 ack 40 ------- 1 4.0 0.0 8 31
+ 8.740048 2 0 ack 40 ------- 1 4.0 0.0 8 31
- 8.740048 2 0 ack 40 ------- 1 4.0 0.0 8 31
r 8.740056 3 2 ack 40 ------- 1 4.0 0.0 9 32
+ 8.740056 2 0 ack 40 ------- 1 4.0 0.0 9 32
- 8.740056 2 0 ack 40 ------- 1 4.0 0.0 9 32
r 8.740065 3 2 ack 40 ------- 1 4.0 0.0 10 33
+ 8.740065 2 0 ack 40 ------- 1 4.0 0.0 10 33
- 8.740065 2 0 ack 40 ------- 1 4.0 0.0 10 33
r 8.740073 3 2 ack 40 ------- 1 4.0 0.0 11 34
+ 8.740073 2 0 ack 40 ------- 1 4.0 0.0 11 34
- 8.740073 2 0 ack 40 ------- 1 4.0 0.0 11 34
r 8.740081 3 2 ack 40 ------- 1 4.0 0.0 12 35
+ 8.740081 2 0 ack 40 ------- 1 4.0 0.0 12 35
- 8.740081 2 0 ack 40 ------- 1 4.0 0.0 12 35
r 8.74009 3 2 ack 40 ------- 1 4.0 0.0 13 36
+ 8.74009 2 0 ack 40 ------- 1 4.0 0.0 13 36
- 8.74009 2 0 ack 40 ------- 1 4.0 0.0 13 36
r 8.740098 3 2 ack 40 ------- 1 4.0 0.0 14 37
+ 8.740098 2 0 ack 40 ------- 1 4.0 0.0 14 37
- 8.740098 2 0 ack 40 ------- 1 4.0 0.0 14 37
r 8.988014 5 3 ack 40 ------- 2 5.0 1.0 2 38
+ 8.988014 3 2 ack 40 ------- 2 5.0 1.0 2 38
- 8.988014 3 2 ack 40 ------- 2 5.0 1.0 2 38
r 9.038014 3 2 ack 40 ------- 2 5.0 1.0 2 38
+ 9.038014 2 1 ack 40 ------- 2 5.0 1.0 2 38
- 9.038014 2 1 ack 40 ------- 2 5.0 1.0 2 38
r 9.29604 2 0 ack 40 ------- 1 4.0 0.0 7 30
9.29604  0  0  4  0  ack_ 7
9.29604  0  0  4  0  rtt_ 2.320 
9.29604  0  0  4  0  cwnd_ 9.000 
+ 9.29604 0 2 tcp 1040 ------- 1 0.0 4.0 15 40
- 9.29604 0 2 tcp 1040 ------- 1 0.0 4.0 15 40
9.29604  0  0  4  0  maxseq_ 15
+ 9.29604 0 2 tcp 1040 ------- 1 0.0 4.0 16 41
9.29604  0  0  4  0  maxseq_ 16
- 9.296042 0 2 tcp 1040 ------- 1 0.0 4.0 16 41
r 9.296048 2 0 ack 40 ------- 1 4.0 0.0 8 31
9.29605  0  0  4  0  ack_ 8
9.29605  0  0  4  0  cwnd_ 10.000
+ 9.296048 0 2 tcp 1040 ------- 1 0.0 4.0 17 42
- 9.296048 0 2 tcp 1040 ------- 1 0.0 4.0 17 42
9.29605  0  0  4  0  maxseq_ 17
+ 9.296048 0 2 tcp 1040 ------- 1 0.0 4.0 18 43
9.29605  0  0  4  0  maxseq_ 18
- 9.29605 0 2 tcp 1040 ------- 1 0.0 4.0 18 43
r 9.296056 2 0 ack 40 ------- 1 4.0 0.0 9 32
9.29606  0  0  4  0  ack_ 9
9.29606  0  0  4  0  cwnd_ 11.000
+ 9.296056 0 2 tcp 1040 ------- 1 0.0 4.0 19 44
- 9.296056 0 2 tcp 1040 ------- 1 0.0 4.0 19 44
9.29606  0  0  4  0  maxseq_ 19
+ 9.296056 0 2 tcp 1040 ------- 1 0.0 4.0 20 45
9.29606  0  0  4  0  maxseq_ 20
- 9.296059 0 2 tcp 1040 ------- 1 0.0 4.0 20 45
r 9.296065 2 0 ack 40 ------- 1 4.0 0.0 10 33
9.29606  0  0  4  0  ack_ 10
9.29606  0  0  4  0  cwnd_ 12.000
+ 9.296065 0 2 tcp 1040 ------- 1 0.0 4.0 21 46
- 9.296065 0 2 tcp 1040 ------- 1 0.0 4.0 21 46
9.29606  0  0  4  0  maxseq_ 21
+ 9.296065 0 2 tcp 1040 ------- 1 0.0 4.0 22 47
9.29606  0  0  4  0  maxseq_ 22
- 9.296067 0 2 tcp 1040 ------- 1 0.0 4.0 22 47
r 9.296073 2 0 ack 40 ------- 1 4.0 0.0 11 34
9.29607  0  0  4  0  ack_ 11
9.29607  0  0  4  0  cwnd_ 13.000
+ 9.296073 0 2 tcp 1040 ------- 1 0.0 4.0 23 48
- 9.296073 0 2 tcp 1040 ------- 1 0.0 4.0 23 48
9.29607  0  0  4  0  maxseq_ 23
+ 9.296073 0 2 tcp 1040 ------- 1 0.0 4.0 24 49
9.29607  0  0  4  0  maxseq_ 24
- 9.296075 0 2 tcp 1040 ------- 1 0.0 4.0 24 49
r 9.296081 2 0 ack 40 ------- 1 4.0 0.0 12 35
9.29608  0  0  4  0  ack_ 12
9.29608  0  0  4  0  cwnd_ 14.000
+ 9.296081 0 2 tcp 1040 ------- 1 0.0 4.0 25 50
- 9.296081 0 2 tcp 1040 ------- 1 0.0 4.0 25 50
9.29608  0  0  4  0  maxseq_ 25
+ 9.296081 0 2 tcp 1040 ------- 1 0.0 4.0 26 51
9.29608  0  0  4  0  maxseq_ 26
- 9.296084 0 2 tcp 1040 ------- 1 0.0 4.0 26 51
r 9.29609 2 0 ack 40 ------- 1 4.0 0.0 13 36
9.29609  0  0  4  0  ack_ 13
9.29609  0  0  4  0  cwnd_ 15.000
+ 9.29609 0 2 tcp 1040 ------- 1 0.0 4.0 27 52
- 9.29609 0 2 tcp 1040 ------- 1 0.0 4.0 27 52
9.29609  0  0  4  0  maxseq_ 27
+ 9.29609 0 2 tcp 1040 ------- 1 0.0 4.0 28 53
9.29609  0  0  4  0  maxseq_ 28
- 9.296092 0 2 tcp 1040 ------- 1 0.0 4.0 28 53
r 9.296098 2 0 ack 40 ------- 1 4.0 0.0 14 37
9.29610  0  0  4  0  ack_ 14
9.29610  0  0  4  0  cwnd_ 16.000
+ 9.296098 0 2 tcp 1040 ------- 1 0.0 4.0 29 54
- 9.296098 0 2 tcp 1040 ------- 1 0.0 4.0 29 54
9.29610  0  0  4  0  maxseq_ 29
+ 9.296098 0 2 tcp 1040 ------- 1 0.0 4.0 30 55
9.29610  0  0  4  0  maxseq_ 30
- 9.2961 0 2 tcp 1040 ------- 1 0.0 4.0 30 55
r 9.424026 5 3 ack 40 ------- 2 5.0 1.0 3 39
+ 9.424026 3 2 ack 40 ------- 2 5.0 1.0 3 39
- 9.424026 3 2 ack 40 ------- 2 5.0 1.0 3 39
r 9.474027 3 2 ack 40 ------- 2 5.0 1.0 3 39
+ 9.474027 2 1 ack 40 ------- 2 5.0 1.0 3 39
- 9.474027 2 1 ack 40 ------- 2 5.0 1.0 3 39
r 9.852042 0 2 tcp 1040 ------- 1 0.0 4.0 15 40
+ 9.852042 2 3 tcp 1040 ------- 1 0.0 4.0 15 40
- 9.852042 2 3 tcp 1040 ------- 1 0.0 4.0 15 40
r 9.852044 0 2 tcp 1040 ------- 1 0.0 4.0 16 41
+ 9.852044 2 3 tcp 1040 ------- 1 0.0 4.0 16 41
- 9.85205 2 3 tcp 1040 ------- 1 0.0 4.0 16 41
r 9.85205 0 2 tcp 1040 ------- 1 0.0 4.0 17 42
+ 9.85205 2 3 tcp 1040 ------- 1 0.0 4.0 17 42
r 9.852052 0 2 tcp 1040 ------- 1 0.0 4.0 18 43
+ 9.852052 2 3 tcp 1040 ------- 1 0.0 4.0 18 43
- 9.852059 2 3 tcp 1040 ------- 1 0.0 4.0 17 42
r 9.852059 0 2 tcp 1040 ------- 1 0.0 4.0 19 44
+ 9.852059 2 3 tcp 1040 ------- 1 0.0 4.0 19 44
r 9.852061 0 2 tcp 1040 ------- 1 0.0 4.0 20 45
+ 9.852061 2 3 tcp 1040 ------- 1 0.0 4.0 20 45
- 9.852067 2 3 tcp 1040 ------- 1 0.0 4.0 18 43
r 9.852067 0 2 tcp 1040 ------- 1 0.0 4.0 21 46
+ 9.852067 2 3 tcp 1040 ------- 1 0.0 4.0 21 46
r 9.852069 0 2 tcp 1040 ------- 1 0.0 4.0 22 47
+ 9.852069 2 3 tcp 1040 ------- 1 0.0 4.0 22 47
- 9.852075 2 3 tcp 1040 ------- 1 0.0 4.0 19 44
r 9.852075 0 2 tcp 1040 ------- 1 0.0 4.0 23 48
+ 9.852075 2 3 tcp 1040 ------- 1 0.0 4.0 23 48
r 9.852077 0 2 tcp 1040 ------- 1 0.0 4.0 24 49
+ 9.852077 2 3 tcp 1040 ------- 1 0.0 4.0 24 49
- 9.852084 2 3 tcp 1040 ------- 1 0.0 4.0 20 45
r 9.852084 0 2 tcp 1040 ------- 1 0.0 4.0 25 50
+ 9.852084 2 3 tcp 1040 ------- 1 0.0 4.0 25 50
r 9.852086 0 2 tcp 1040 ------- 1 0.0 4.0 26 51
+ 9.852086 2 3 tcp 1040 ------- 1 0.0 4.0 26 51
- 9.852092 2 3 tcp 1040 ------- 1 0.0 4.0 21 46
r 9.852092 0 2 tcp 1040 ------- 1 0.0 4.0 27 52
+ 9.852092 2 3 tcp 1040 ------- 1 0.0 4.0 27 52
r 9.852094 0 2 tcp 1040 ------- 1 0.0 4.0 28 53
+ 9.852094 2 3 tcp 1040 ------- 1 0.0 4.0 28 53
- 9.8521 2 3 tcp 1040 ------- 1 0.0 4.0 22 47
r 9.8521 0 2 tcp 1040 ------- 1 0.0 4.0 29 54
+ 9.8521 2 3 tcp 1040 ------- 1 0.0 4.0 29 54
r 9.852102 0 2 tcp 1040 ------- 1 0.0 4.0 30 55
+ 9.852102 2 3 tcp 1040 ------- 1 0.0 4.0 30 55
- 9.852108 2 3 tcp 1040 ------- 1 0.0 4.0 23 48
- 9.852117 2 3 tcp 1040 ------- 1 0.0 4.0 24 49
- 9.852125 2 3 tcp 1040 ------- 1 0.0 4.0 25 50
- 9.852133 2 3 tcp 1040 ------- 1 0.0 4.0 26 51
- 9.852142 2 3 tcp 1040 ------- 1 0.0 4.0 27 52
- 9.85215 2 3 tcp 1040 ------- 1 0.0 4.0 28 53
- 9.852158 2 3 tcp 1040 ------- 1 0.0 4.0 29 54
- 9.852167 2 3 tcp 1040 ------- 1 0.0 4.0 30 55
r 9.872014 2 1 ack 40 ------- 2 5.0 1.0 2 38
9.87201  1  0  5  0  ack_ 2
9.87201  1  0  5  0  cwnd_ 2.500 
+ 9.872014 1 2 tcp 1040 ------- 2 1.0 5.0 4 56
- 9.872014 1 2 tcp 1040 ------- 2 1.0 5.0 4 56
9.87201  1  0  5  0  maxseq_ 4
r 9.90205 2 3 tcp 1040 ------- 1 0.0 4.0 15 40
+ 9.90205 3 4 tcp 1040 ------- 1 0.0 4.0 15 40
- 9.90205 3 4 tcp 1040 ------- 1 0.0 4.0 15 40
r 9.902059 2 3 tcp 1040 ------- 1 0.0 4.0 16 41
+ 9.902059 3 4 tcp 1040 ------- 1 0.0 4.0 16 41
- 9.902059 3 4 tcp 1040 ------- 1 0.0 4.0 16 41
r 9.902067 2 3 tcp 1040 ------- 1 0.0 4.0 17 42
+ 9.902067 3 4 tcp 1040 ------- 1 0.0 4.0 17 42
- 9.902067 3 4 tcp 1040 ------- 1 0.0 4.0 17 42
r 9.902075 2 3 tcp 1040 ------- 1 0.0 4.0 18 43
+ 9.902075 3 4 tcp 1040 ------- 1 0.0 4.0 18 43
- 9.902075 3 4 tcp 1040 ------- 1 0.0 4.0 18 43
r 9.902084 2 3 tcp 1040 ------- 1 0.0 4.0 19 44
+ 9.902084 3 4 tcp 1040 ------- 1 0.0 4.0 19 44
- 9.902084 3 4 tcp 1040 ------- 1 0.0 4.0 19 44
r 9.902092 2 3 tcp 1040 ------- 1 0.0 4.0 20 45
+ 9.902092 3 4 tcp 1040 ------- 1 0.0 4.0 20 45
- 9.902092 3 4 tcp 1040 ------- 1 0.0 4.0 20 45
r 9.9021 2 3 tcp 1040 ------- 1 0.0 4.0 21 46
+ 9.9021 3 4 tcp 1040 ------- 1 0.0 4.0 21 46
- 9.9021 3 4 tcp 1040 ------- 1 0.0 4.0 21 46
r 9.902108 2 3 tcp 1040 ------- 1 0.0 4.0 22 47
+ 9.902108 3 4 tcp 1040 ------- 1 0.0 4.0 22 47
- 9.902108 3 4 tcp 1040 ------- 1 0.0 4.0 22 47
r 9.902117 2 3 tcp 1040 ------- 1 0.0 4.0 23 48
+ 9.902117 3 4 tcp 1040 ------- 1 0.0 4.0 23 48
- 9.902117 3 4 tcp 1040 ------- 1 0.0 4.0 23 48
r 9.902125 2 3 tcp 1040 ------- 1 0.0 4.0 24 49
+ 9.902125 3 4 tcp 1040 ------- 1 0.0 4.0 24 49
- 9.902125 3 4 tcp 1040 ------- 1 0.0 4.0 24 49
r 9.902133 2 3 tcp 1040 ------- 1 0.0 4.0 25 50
+ 9.902133 3 4 tcp 1040 ------- 1 0.0 4.0 25 50
- 9.902133 3 4 tcp 1040 ------- 1 0.0 4.0 25 50
r 9.902142 2 3 tcp 1040 ------- 1 0.0 4.0 26 51
+ 9.902142 3 4 tcp 1040 ------- 1 0.0 4.0 26 51
- 9.902142 3 4 tcp 1040 ------- 1 0.0 4.0 26 51
r 9.90215 2 3 tcp 1040 ------- 1 0.0 4.0 27 52
+ 9.90215 3 4 tcp 1040 ------- 1 0.0 4.0 27 52
- 9.90215 3 4 tcp 1040 ------- 1 0.0 4.0 27 52
r 9.902158 2 3 tcp 1040 ------- 1 0.0 4.0 28 53
+ 9.902158 3 4 tcp 1040 ------- 1 0.0 4.0 28 53
- 9.902158 3 4 tcp 1040 ------- 1 0.0 4.0 28 53
r 9.902167 2 3 tcp 1040 ------- 1 0.0 4.0 29 54
+ 9.902167 3 4 tcp 1040 ------- 1 0.0 4.0 29 54
- 9.902167 3 4 tcp 1040 ------- 1 0.0 4.0 29 54
r 9.902175 2 3 tcp 1040 ------- 1 0.0 4.0 30 55
+ 9.902175 3 4 tcp 1040 ------- 1 0.0 4.0 30 55
- 9.902175 3 4 tcp 1040 ------- 1 0.0 4.0 30 55
r 10.308027 2 1 ack 40 ------- 2 5.0 1.0 3 39
10.30803 1  0  5  0  ack_ 3
10.30803 1  0  5  0  rtt_ 3.430 
10.30803 1  0  5  0  cwnd_ 2.900 
+ 10.308027 1 2 tcp 1040 ------- 2 1.0 5.0 5 57
- 10.308027 1 2 tcp 1040 ------- 2 1.0 5.0 5 57
10.30803 1  0  5  0  maxseq_ 5
r 10.458052 3 4 tcp 1040 ------- 1 0.0 4.0 15 40
+ 10.458052 4 3 ack 40 ------- 1 4.0 0.0 15 58
- 10.458052 4 3 ack 40 ------- 1 4.0 0.0 15 58
r 10.458061 3 4 tcp 1040 ------- 1 0.0 4.0 16 41
+ 10.458061 4 3 ack 40 ------- 1 4.0 0.0 16 59
- 10.458061 4 3 ack 40 ------- 1 4.0 0.0 16 59
r 10.458069 3 4 tcp 1040 ------- 1 0.0 4.0 17 42
+ 10.458069 4 3 ack 40 ------- 1 4.0 0.0 17 60
- 10.458069 4 3 ack 40 ------- 1 4.0 0.0 17 60
r 10.458077 3 4 tcp 1040 ------- 1 0.0 4.0 18 43
+ 10.458077 4 3 ack 40 ------- 1 4.0 0.0 18 61
- 10.458077 4 3 ack 40 ------- 1 4.0 0.0 18 61
r 10.458086 3 4 tcp 1040 ------- 1 0.0 4.0 19 44
+ 10.458086 4 3 ack 40 ------- 1 4.0 0.0 19 62
- 10.458086 4 3 ack 40 ------- 1 4.0 0.0 19 62
r 10.458094 3 4 tcp 1040 ------- 1 0.0 4.0 20 45
+ 10.458094 4 3 ack 40 ------- 1 4.0 0.0 20 63
- 10.458094 4 3 ack 40 ------- 1 4.0 0.0 20 63
r 10.458102 3 4 tcp 1040 ------- 1 0.0 4.0 21 46
+ 10.458102 4 3 ack 40 ------- 1 4.0 0.0 21 64
- 10.458102 4 3 ack 40 ------- 1 4.0 0.0 21 64
r 10.458111 3 4 tcp 1040 ------- 1 0.0 4.0 22 47
+ 10.458111 4 3 ack 40 ------- 1 4.0 0.0 22 65
- 10.458111 4 3 ack 40 ------- 1 4.0 0.0 22 65
r 10.458119 3 4 tcp 1040 ------- 1 0.0 4.0 23 48
+ 10.458119 4 3 ack 40 ------- 1 4.0 0.0 23 66
- 10.458119 4 3 ack 40 ------- 1 4.0 0.0 23 66
r 10.458127 3 4 tcp 1040 ------- 1 0.0 4.0 24 49
+ 10.458127 4 3 ack 40 ------- 1 4.0 0.0 24 67
- 10.458127 4 3 ack 40 ------- 1 4.0 0.0 24 67
r 10.458136 3 4 tcp 1040 ------- 1 0.0 4.0 25 50
+ 10.458136 4 3 ack 40 ------- 1 4.0 0.0 25 68
- 10.458136 4 3 ack 40 ------- 1 4.0 0.0 25 68
r 10.458144 3 4 tcp 1040 ------- 1 0.0 4.0 26 51
+ 10.458144 4 3 ack 40 ------- 1 4.0 0.0 26 69
- 10.458144 4 3 ack 40 ------- 1 4.0 0.0 26 69
r 10.458152 3 4 tcp 1040 ------- 1 0.0 4.0 27 52
+ 10.458152 4 3 ack 40 ------- 1 4.0 0.0 27 70
- 10.458152 4 3 ack 40 ------- 1 4.0 0.0 27 70
r 10.45816 3 4 tcp 1040 ------- 1 0.0 4.0 28 53
+ 10.45816 4 3 ack 40 ------- 1 4.0 0.0 28 71
- 10.45816 4 3 ack 40 ------- 1 4.0 0.0 28 71
r 10.458169 3 4 tcp 1040 ------- 1 0.0 4.0 29 54
+ 10.458169 4 3 ack 40 ------- 1 4.0 0.0 29 72
- 10.458169 4 3 ack 40 ------- 1 4.0 0.0 29 72
r 10.458177 3 4 tcp 1040 ------- 1 0.0 4.0 30 55
+ 10.458177 4 3 ack 40 ------- 1 4.0 0.0 30 73
- 10.458177 4 3 ack 40 ------- 1 4.0 0.0 30 73
r 10.706016 1 2 tcp 1040 ------- 2 1.0 5.0 4 56
+ 10.706016 2 3 tcp 1040 ------- 2 1.0 5.0 4 56
- 10.706016 2 3 tcp 1040 ------- 2 1.0 5.0 4 56
r 10.756024 2 3 tcp 1040 ------- 2 1.0 5.0 4 56
+ 10.756024 3 5 tcp 1040 ------- 2 1.0 5.0 4 56
- 10.756024 3 5 tcp 1040 ------- 2 1.0 5.0 4 56
r 11.014052 4 3 ack 40 ------- 1 4.0 0.0 15 58
+ 11.014052 3 2 ack 40 ------- 1 4.0 0.0 15 58
- 11.014052 3 2 ack 40 ------- 1 4.0 0.0 15 58
r 11.014061 4 3 ack 40 ------- 1 4.0 0.0 16 59
+ 11.014061 3 2 ack 40 ------- 1 4.0 0.0 16 59
- 11.014061 3 2 ack 40 ------- 1 4.0 0.0 16 59
r 11.014069 4 3 ack 40 ------- 1 4.0 0.0 17 60
+ 11.014069 3 2 ack 40 ------- 1 4.0 0.0 17 60
- 11.014069 3 2 ack 40 ------- 1 4.0 0.0 17 60
r 11.014077 4 3 ack 40 ------- 1 4.0 0.0 18 61
+ 11.014077 3 2 ack 40 ------- 1 4.0 0.0 18 61
- 11.014077 3 2 ack 40 ------- 1 4.0 0.0 18 61
r 11.014086 4 3 ack 40 ------- 1 4.0 0.0 19 62
+ 11.014086 3 2 ack 40 ------- 1 4.0 0.0 19 62
- 11.014086 3 2 ack 40 ------- 1 4.0 0.0 19 62
r 11.014094 4 3 ack 40 ------- 1 4.0 0.0 20 63
+ 11.014094 3 2 ack 40 ------- 1 4.0 0.0 20 63
- 11.014094 3 2 ack 40 ------- 1 4.0 0.0 20 63
r 11.014102 4 3 ack 40 ------- 1 4.0 0.0 21 64
+ 11.014102 3 2 ack 40 ------- 1 4.0 0.0 21 64
- 11.014102 3 2 ack 40 ------- 1 4.0 0.0 21 64
r 11.014111 4 3 ack 40 ------- 1 4.0 0.0 22 65
+ 11.014111 3 2 ack 40 ------- 1 4.0 0.0 22 65
- 11.014111 3 2 ack 40 ------- 1 4.0 0.0 22 65
r 11.014119 4 3 ack 40 ------- 1 4.0 0.0 23 66
+ 11.014119 3 2 ack 40 ------- 1 4.0 0.0 23 66
- 11.014119 3 2 ack 40 ------- 1 4.0 0.0 23 66
r 11.014127 4 3 ack 40 ------- 1 4.0 0.0 24 67
+ 11.014127 3 2 ack 40 ------- 1 4.0 0.0 24 67
- 11.014127 3 2 ack 40 ------- 1 4.0 0.0 24 67
r 11.014136 4 3 ack 40 ------- 1 4.0 0.0 25 68
+ 11.014136 3 2 ack 40 ------- 1 4.0 0.0 25 68
- 11.014136 3 2 ack 40 ------- 1 4.0 0.0 25 68
r 11.014144 4 3 ack 40 ------- 1 4.0 0.0 26 69
+ 11.014144 3 2 ack 40 ------- 1 4.0 0.0 26 69
- 11.014144 3 2 ack 40 ------- 1 4.0 0.0 26 69
r 11.014152 4 3 ack 40 ------- 1 4.0 0.0 27 70