0.00000  0  0  4  0  cwnd_ 1.000 
0.00000  0  0  4  0  ssthresh_ 20
0.00000  0  0  4  0  ack_ -1
0.00000  0  0  4  0  maxseq_ -1
0.00000  0  0  4  0  rtt_ 0.000 
0.00000  1  0  5  0  cwnd_ 1.000 
0.00000  1  0  5  0  ssthresh_ 20
0.00000  1  0  5  0  ack_ -1
0.00000  1  0  5  0  maxseq_ -1
0.00000  1  0  5  0  rtt_ 0.000 
0.00000  0  0  4  0  ssthresh_ 1000
0.00000  1  0  5  0  ssthresh_ 1000
+ 0 1 2 tcp 40 ------- 2 1.0 5.0 0 0
- 0 1 2 tcp 40 ------- 2 1.0 5.0 0 0
0.00000  1  0  5  0  maxseq_ 0
+ 0 0 2 tcp 40 ------- 1 0.0 4.0 0 1
- 0 0 2 tcp 40 ------- 1 0.0 4.0 0 1
0.00000  0  0  4  0  maxseq_ 0
r 0.545 0 2 tcp 40 ------- 1 0.0 4.0 0 1
+ 0.545 2 3 tcp 40 ------- 1 0.0 4.0 0 1
- 0.545 2 3 tcp 40 ------- 1 0.0 4.0 0 1
r 0.595 2 3 tcp 40 ------- 1 0.0 4.0 0 1
+ 0.595 3 4 tcp 40 ------- 1 0.0 4.0 0 1
- 0.595 3 4 tcp 40 ------- 1 0.0 4.0 0 1
r 0.823 1 2 tcp 40 ------- 2 1.0 5.0 0 0
+ 0.823 2 3 tcp 40 ------- 2 1.0 5.0 0 0
- 0.823 2 3 tcp 40 ------- 2 1.0 5.0 0 0
r 0.873 2 3 tcp 40 ------- 2 1.0 5.0 0 0
+ 0.873 3 5 tcp 40 ------- 2 1.0 5.0 0 0
- 0.873 3 5 tcp 40 ------- 2 1.0 5.0 0 0
r 1.14 3 4 tcp 40 ------- 1 0.0 4.0 0 1
+ 1.14 4 3 ack 40 ------- 1 4.0 0.0 0 2
- 1.14 4 3 ack 40 ------- 1 4.0 0.0 0 2
r 1.685001 4 3 ack 40 ------- 1 4.0 0.0 0 2
+ 1.685001 3 2 ack 40 ------- 1 4.0 0.0 0 2
- 1.685001 3 2 ack 40 ------- 1 4.0 0.0 0 2
r 1.696 3 5 tcp 40 ------- 2 1.0 5.0 0 0
+ 1.696 5 3 ack 40 ------- 2 5.0 1.0 0 3
- 1.696 5 3 ack 40 ------- 2 5.0 1.0 0 3
r 1.735001 3 2 ack 40 ------- 1 4.0 0.0 0 2
+ 1.735001 2 0 ack 40 ------- 1 4.0 0.0 0 2
- 1.735001 2 0 ack 40 ------- 1 4.0 0.0 0 2
r 2.280001 2 0 ack 40 ------- 1 4.0 0.0 0 2
2.28000  0  0  4  0  ack_ 0
2.28000  0  0  4  0  rtt_ 2.280 
2.28000  0  0  4  0  cwnd_ 2.000 
+ 2.280001 0 2 tcp 1040 ------- 1 0.0 4.0 1 4
- 2.280001 0 2 tcp 1040 ------- 1 0.0 4.0 1 4
2.28000  0  0  4  0  maxseq_ 1
+ 2.280001 0 2 tcp 1040 ------- 1 0.0 4.0 2 5
2.28000  0  0  4  0  maxseq_ 2
- 2.280003 0 2 tcp 1040 ------- 1 0.0 4.0 2 5
r 2.519001 5 3 ack 40 ------- 2 5.0 1.0 0 3
+ 2.519001 3 2 ack 40 ------- 2 5.0 1.0 0 3
- 2.519001 3 2 ack 40 ------- 2 5.0 1.0 0 3
r 2.569001 3 2 ack 40 ------- 2 5.0 1.0 0 3
+ 2.569001 2 1 ack 40 ------- 2 5.0 1.0 0 3
- 2.569001 2 1 ack 40 ------- 2 5.0 1.0 0 3
r 2.825003 0 2 tcp 1040 ------- 1 0.0 4.0 1 4
+ 2.825003 2 3 tcp 1040 ------- 1 0.0 4.0 1 4
- 2.825003 2 3 tcp 1040 ------- 1 0.0 4.0 1 4
r 2.825005 0 2 tcp 1040 ------- 1 0.0 4.0 2 5
+ 2.825005 2 3 tcp 1040 ------- 1 0.0 4.0 2 5
- 2.825011 2 3 tcp 1040 ------- 1 0.0 4.0 2 5
r 2.875011 2 3 tcp 1040 ------- 1 0.0 4.0 1 4
+ 2.875011 3 4 tcp 1040 ------- 1 0.0 4.0 1 4
- 2.875011 3 4 tcp 1040 ------- 1 0.0 4.0 1 4
r 2.87502 2 3 tcp 1040 ------- 1 0.0 4.0 2 5
+ 2.87502 3 4 tcp 1040 ------- 1 0.0 4.0 2 5
- 2.87502 3 4 tcp 1040 ------- 1 0.0 4.0 2 5
3.00000  1  0  5  0  ssthresh_ 0
3.00000  1  0  5  0  ssthresh_ 2
+ 3 1 2 tcp 40 ---A--- 2 1.0 5.0 0 6
- 3 1 2 tcp 40 ---A--- 2 1.0 5.0 0 6
r 3.392001 2 1 ack 40 ------- 2 5.0 1.0 0 3
3.39200  1  0  5  0  ack_ 0
3.39200  1  0  5  0  cwnd_ 2.000 
3.39200  1  0  5  0  cwnd_ 1.000 
+ 3.392001 1 2 tcp 1040 ------- 2 1.0 5.0 1 7
- 3.392001 1 2 tcp 1040 ------- 2 1.0 5.0 1 7
3.39200  1  0  5  0  maxseq_ 1
r 3.420013 3 4 tcp 1040 ------- 1 0.0 4.0 1 4
+ 3.420013 4 3 ack 40 ------- 1 4.0 0.0 1 8
- 3.420013 4 3 ack 40 ------- 1 4.0 0.0 1 8
r 3.420022 3 4 tcp 1040 ------- 1 0.0 4.0 2 5
+ 3.420022 4 3 ack 40 ------- 1 4.0 0.0 2 9
- 3.420022 4 3 ack 40 ------- 1 4.0 0.0 2 9
r 3.823 1 2 tcp 40 ---A--- 2 1.0 5.0 0 6
+ 3.823 2 3 tcp 40 ---A--- 2 1.0 5.0 0 6
- 3.823 2 3 tcp 40 ---A--- 2 1.0 5.0 0 6
r 3.873 2 3 tcp 40 ---A--- 2 1.0 5.0 0 6
+ 3.873 3 5 tcp 40 ---A--- 2 1.0 5.0 0 6
- 3.873 3 5 tcp 40 ---A--- 2 1.0 5.0 0 6
r 3.965014 4 3 ack 40 ------- 1 4.0 0.0 1 8
+ 3.965014 3 2 ack 40 ------- 1 4.0 0.0 1 8
- 3.965014 3 2 ack 40 ------- 1 4.0 0.0 1 8
r 3.965022 4 3 ack 40 ------- 1 4.0 0.0 2 9
+ 3.965022 3 2 ack 40 ------- 1 4.0 0.0 2 9
- 3.965022 3 2 ack 40 ------- 1 4.0 0.0 2 9
r 4.015014 3 2 ack 40 ------- 1 4.0 0.0 1 8
+ 4.015014 2 0 ack 40 ------- 1 4.0 0.0 1 8
- 4.015014 2 0 ack 40 ------- 1 4.0 0.0 1 8
r 4.015022 3 2 ack 40 ------- 1 4.0 0.0 2 9
+ 4.015022 2 0 ack 40 ------- 1 4.0 0.0 2 9
- 4.015022 2 0 ack 40 ------- 1 4.0 0.0 2 9
r 4.215003 1 2 tcp 1040 ------- 2 1.0 5.0 1 7
+ 4.215003 2 3 tcp 1040 ------- 2 1.0 5.0 1 7
- 4.215003 2 3 tcp 1040 ------- 2 1.0 5.0 1 7
r 4.265011 2 3 tcp 1040 ------- 2 1.0 5.0 1 7
+ 4.265011 3 5 tcp 1040 ------- 2 1.0 5.0 1 7
- 4.265011 3 5 tcp 1040 ------- 2 1.0 5.0 1 7
r 4.560014 2 0 ack 40 ------- 1 4.0 0.0 1 8
4.56001  0  0  4  0  ack_ 1
4.56001  0  0  4  0  cwnd_ 3.000 
+ 4.560014 0 2 tcp 1040 ------- 1 0.0 4.0 3 10
- 4.560014 0 2 tcp 1040 ------- 1 0.0 4.0 3 10
4.56001  0  0  4  0  maxseq_ 3
+ 4.560014 0 2 tcp 1040 ------- 1 0.0 4.0 4 11
4.56001  0  0  4  0  maxseq_ 4
- 4.560016 0 2 tcp 1040 ------- 1 0.0 4.0 4 11
r 4.560022 2 0 ack 40 ------- 1 4.0 0.0 2 9
4.56002  0  0  4  0  ack_ 2
4.56002  0  0  4  0  cwnd_ 4.000 
+ 4.560022 0 2 tcp 1040 ------- 1 0.0 4.0 5 12
- 4.560022 0 2 tcp 1040 ------- 1 0.0 4.0 5 12
4.56002  0  0  4  0  maxseq_ 5
+ 4.560022 0 2 tcp 1040 ------- 1 0.0 4.0 6 13
4.56002  0  0  4  0  maxseq_ 6
- 4.560024 0 2 tcp 1040 ------- 1 0.0 4.0 6 13
r 4.696 3 5 tcp 40 ---A--- 2 1.0 5.0 0 6
+ 4.696 5 3 ack 40 ------- 2 5.0 1.0 0 14
- 4.696 5 3 ack 40 ------- 2 5.0 1.0 0 14
r 5.088013 3 5 tcp 1040 ------- 2 1.0 5.0 1 7
+ 5.088013 5 3 ack 40 ------- 2 5.0 1.0 1 15
- 5.088013 5 3 ack 40 ------- 2 5.0 1.0 1 15
r 5.105016 0 2 tcp 1040 ------- 1 0.0 4.0 3 10
+ 5.105016 2 3 tcp 1040 ------- 1 0.0 4.0 3 10
- 5.105016 2 3 tcp 1040 ------- 1 0.0 4.0 3 10
r 5.105018 0 2 tcp 1040 ------- 1 0.0 4.0 4 11
+ 5.105018 2 3 tcp 1040 ------- 1 0.0 4.0 4 11
r 5.105024 0 2 tcp 1040 ------- 1 0.0 4.0 5 12
+ 5.105024 2 3 tcp 1040 ------- 1 0.0 4.0 5 12
- 5.105024 2 3 tcp 1040 ------- 1 0.0 4.0 4 11
r 5.105026 0 2 tcp 1040 ------- 1 0.0 4.0 6 13
+ 5.105026 2 3 tcp 1040 ------- 1 0.0 4.0 6 13
- 5.105033 2 3 tcp 1040 ------- 1 0.0 4.0 5 12
- 5.105041 2 3 tcp 1040 ------- 1 0.0 4.0 6 13
r 5.155024 2 3 tcp 1040 ------- 1 0.0 4.0 3 10
+ 5.155024 3 4 tcp 1040 ------- 1 0.0 4.0 3 10
- 5.155024 3 4 tcp 1040 ------- 1 0.0 4.0 3 10
r 5.155033 2 3 tcp 1040 ------- 1 0.0 4.0 4 11
+ 5.155033 3 4 tcp 1040 ------- 1 0.0 4.0 4 11
- 5.155033 3 4 tcp 1040 ------- 1 0.0 4.0 4 11
r 5.155041 2 3 tcp 1040 ------- 1 0.0 4.0 5 12
+ 5.155041 3 4 tcp 1040 ------- 1 0.0 4.0 5 12
- 5.155041 3 4 tcp 1040 ------- 1 0.0 4.0 5 12
r 5.155049 2 3 tcp 1040 ------- 1 0.0 4.0 6 13
+ 5.155049 3 4 tcp 1040 ------- 1 0.0 4.0 6 13
- 5.155049 3 4 tcp 1040 ------- 1 0.0 4.0 6 13
r 5.519001 5 3 ack 40 ------- 2 5.0 1.0 0 14
+ 5.519001 3 2 ack 40 ------- 2 5.0 1.0 0 14
- 5.519001 3 2 ack 40 ------- 2 5.0 1.0 0 14
r 5.569001 3 2 ack 40 ------- 2 5.0 1.0 0 14
+ 5.569001 2 1 ack 40 ------- 2 5.0 1.0 0 14
- 5.569001 2 1 ack 40 ------- 2 5.0 1.0 0 14
r 5.700026 3 4 tcp 1040 ------- 1 0.0 4.0 3 10
+ 5.700026 4 3 ack 40 ------- 1 4.0 0.0 3 16
- 5.700026 4 3 ack 40 ------- 1 4.0 0.0 3 16
r 5.700035 3 4 tcp 1040 ------- 1 0.0 4.0 4 11
+ 5.700035 4 3 ack 40 ------- 1 4.0 0.0 4 17
- 5.700035 4 3 ack 40 ------- 1 4.0 0.0 4 17
r 5.700043 3 4 tcp 1040 ------- 1 0.0 4.0 5 12
+ 5.700043 4 3 ack 40 ------- 1 4.0 0.0 5 18
- 5.700043 4 3 ack 40 ------- 1 4.0 0.0 5 18
r 5.700051 3 4 tcp 1040 ------- 1 0.0 4.0 6 13
+ 5.700051 4 3 ack 40 ------- 1 4.0 0.0 6 19
- 5.700051 4 3 ack 40 ------- 1 4.0 0.0 6 19
r 5.911014 5 3 ack 40 ------- 2 5.0 1.0 1 15
+ 5.911014 3 2 ack 40 ------- 2 5.0 1.0 1 15
- 5.911014 3 2 ack 40 ------- 2 5.0 1.0 1 15
r 5.961014 3 2 ack 40 ------- 2 5.0 1.0 1 15
+ 5.961014 2 1 ack 40 ------- 2 5.0 1.0 1 15
- 5.961014 2 1 ack 40 ------- 2 5.0 1.0 1 15
r 6.245026 4 3 ack 40 ------- 1 4.0 0.0 3 16
+ 6.245026 3 2 ack 40 ------- 1 4.0 0.0 3 16
- 6.245026 3 2 ack 40 ------- 1 4.0 0.0 3 16
r 6.245035 4 3 ack 40 ------- 1 4.0 0.0 4 17
+ 6.245035 3 2 ack 40 ------- 1 4.0 0.0 4 17
- 6.245035 3 2 ack 40 ------- 1 4.0 0.0 4 17
r 6.245043 4 3 ack 40 ------- 1 4.0 0.0 5 18
+ 6.245043 3 2 ack 40 ------- 1 4.0 0.0 5 18
- 6.245043 3 2 ack 40 ------- 1 4.0 0.0 5 18
r 6.245051 4 3 ack 40 ------- 1 4.0 0.0 6 19
+ 6.245051 3 2 ack 40 ------- 1 4.0 0.0 6 19
- 6.245051 3 2 ack 40 ------- 1 4.0 0.0 6 19
r 6.295027 3 2 ack 40 ------- 1 4.0 0.0 3 16
+ 6.295027 2 0 ack 40 ------- 1 4.0 0.0 3 16
- 6.295027 2 0 ack 40 ------- 1 4.0 0.0 3 16
r 6.295035 3 2 ack 40 ------- 1 4.0 0.0 4 17
+ 6.295035 2 0 ack 40 ------- 1 4.0 0.0 4 17
- 6.295035 2 0 ack 40 ------- 1 4.0 0.0 4 17
r 6.295043 3 2 ack 40 ------- 1 4.0 0.0 5 18
+ 6.295043 2 0 ack 40 ------- 1 4.0 0.0 5 18
- 6.295043 2 0 ack 40 ------- 1 4.0 0.0 5 18
r 6.295052 3 2 ack 40 ------- 1 4.0 0.0 6 19
+ 6.295052 2 0 ack 40 ------- 1 4.0 0.0 6 19
- 6.295052 2 0 ack 40 ------- 1 4.0 0.0 6 19
r 6.392001 2 1 ack 40 ------- 2 5.0 1.0 0 14
+ 6.392001 1 2 tcp 1040 ------- 2 1.0 5.0 2 20
- 6.392001 1 2 tcp 1040 ------- 2 1.0 5.0 2 20
6.39200  1  0  5  0  maxseq_ 2
r 6.784014 2 1 ack 40 ------- 2 5.0 1.0 1 15
6.78401  1  0  5  0  ack_ 1
6.78401  1  0  5  0  rtt_ 3.390 
6.78401  1  0  5  0  cwnd_ 2.000 
+ 6.784014 1 2 tcp 1040 ------- 2 1.0 5.0 3 21
- 6.784014 1 2 tcp 1040 ------- 2 1.0 5.0 3 21
6.78401  1  0  5  0  maxseq_ 3
r 6.840027 2 0 ack 40 ------- 1 4.0 0.0 3 16
6.84003  0  0  4  0  ack_ 3
6.84003  0  0  4  0  cwnd_ 5.000 
+ 6.840027 0 2 tcp 1040 ------- 1 0.0 4.0 7 22
- 6.840027 0 2 tcp 1040 ------- 1 0.0 4.0 7 22
6.84003  0  0  4  0  maxseq_ 7
+ 6.840027 0 2 tcp 1040 ------- 1 0.0 4.0 8 23
6.84003  0  0  4  0  maxseq_ 8
- 6.840029 0 2 tcp 1040 ------- 1 0.0 4.0 8 23
r 6.840035 2 0 ack 40 ------- 1 4.0 0.0 4 17
6.84004  0  0  4  0  ack_ 4
6.84004  0  0  4  0  cwnd_ 6.000 
+ 6.840035 0 2 tcp 1040 ------- 1 0.0 4.0 9 24
- 6.840035 0 2 tcp 1040 ------- 1 0.0 4.0 9 24
6.84004  0  0  4  0  maxseq_ 9
+ 6.840035 0 2 tcp 1040 ------- 1 0.0 4.0 10 25
6.84004  0  0  4  0  maxseq_ 10
- 6.840037 0 2 tcp 1040 ------- 1 0.0 4.0 10 25
r 6.840044 2 0 ack 40 ------- 1 4.0 0.0 5 18
6.84004  0  0  4  0  ack_ 5
6.84004  0  0  4  0  cwnd_ 7.000 
+ 6.840044 0 2 tcp 1040 ------- 1 0.0 4.0 11 26
- 6.840044 0 2 tcp 1040 ------- 1 0.0 4.0 11 26
6.84004  0  0  4  0  maxseq_ 11
+ 6.840044 0 2 tcp 1040 ------- 1 0.0 4.0 12 27
6.84004  0  0  4  0  maxseq_ 12
- 6.840046 0 2 tcp 1040 ------- 1 0.0 4.0 12 27
r 6.840052 2 0 ack 40 ------- 1 4.0 0.0 6 19
6.84005  0  0  4  0  ack_ 6
6.84005  0  0  4  0  cwnd_ 8.000 
+ 6.840052 0 2 tcp 1040 ------- 1 0.0 4.0 13 28
- 6.840052 0 2 tcp 1040 ------- 1 0.0 4.0 13 28
6.84005  0  0  4  0  maxseq_ 13
+ 6.840052 0 2 tcp 1040 ------- 1 0.0 4.0 14 29
6.84005  0  0  4  0  maxseq_ 14
- 6.840054 0 2 tcp 1040 ------- 1 0.0 4.0 14 29
r 7.215003 1 2 tcp 1040 ------- 2 1.0 5.0 2 20
+ 7.215003 2 3 tcp 1040 ------- 2 1.0 5.0 2 20
- 7.215003 2 3 tcp 1040 ------- 2 1.0 5.0 2 20
r 7.265011 2 3 tcp 1040 ------- 2 1.0 5.0 2 20
+ 7.265011 3 5 tcp 1040 ------- 2 1.0 5.0 2 20
- 7.265011 3 5 tcp 1040 ------- 2 1.0 5.0 2 20
r 7.385029 0 2 tcp 1040 ------- 1 0.0 4.0 7 22
+ 7.385029 2 3 tcp 1040 ------- 1 0.0 4.0 7 22
- 7.385029 2 3 tcp 1040 ------- 1 0.0 4.0 7 22
r 7.385031 0 2 tcp 1040 ------- 1 0.0 4.0 8 23
+ 7.385031 2 3 tcp 1040 ------- 1 0.0 4.0 8 23
r 7.385037 0 2 tcp 1040 ------- 1 0.0 4.0 9 24
+ 7.385037 2 3 tcp 1040 ------- 1 0.0 4.0 9 24
- 7.385037 2 3 tcp 1040 ------- 1 0.0 4.0 8 23
r 7.385039 0 2 tcp 1040 ------- 1 0.0 4.0 10 25
+ 7.385039 2 3 tcp 1040 ------- 1 0.0 4.0 10 25
r 7.385046 0 2 tcp 1040 ------- 1 0.0 4.0 11 26
+ 7.385046 2 3 tcp 1040 ------- 1 0.0 4.0 11 26
- 7.385046 2 3 tcp 1040 ------- 1 0.0 4.0 9 24
r 7.385048 0 2 tcp 1040 ------- 1 0.0 4.0 12 27
+ 7.385048 2 3 tcp 1040 ------- 1 0.0 4.0 12 27
r 7.385054 0 2 tcp 1040 ------- 1 0.0 4.0 13 28
+ 7.385054 2 3 tcp 1040 ------- 1 0.0 4.0 13 28
- 7.385054 2 3 tcp 1040 ------- 1 0.0 4.0 10 25
r 7.385056 0 2 tcp 1040 ------- 1 0.0 4.0 14 29
+ 7.385056 2 3 tcp 1040 ------- 1 0.0 4.0 14 29
- 7.385062 2 3 tcp 1040 ------- 1 0.0 4.0 11 26
- 7.385071 2 3 tcp 1040 ------- 1 0.0 4.0 12 27
- 7.385079 2 3 tcp 1040 ------- 1 0.0 4.0 13 28
- 7.385087 2 3 tcp 1040 ------- 1 0.0 4.0 14 29
r 7.435037 2 3 tcp 1040 ------- 1 0.0 4.0 7 22
+ 7.435037 3 4 tcp 1040 ------- 1 0.0 4.0 7 22
- 7.435037 3 4 tcp 1040 ------- 1 0.0 4.0 7 22
r 7.435046 2 3 tcp 1040 ------- 1 0.0 4.0 8 23
+ 7.435046 3 4 tcp 1040 ------- 1 0.0 4.0 8 23
- 7.435046 3 4 tcp 1040 ------- 1 0.0 4.0 8 23
r 7.435054 2 3 tcp 1040 ------- 1 0.0 4.0 9 24
+ 7.435054 3 4 tcp 1040 ------- 1 0.0 4.0 9 24
- 7.435054 3 4 tcp 1040 ------- 1 0.0 4.0 9 24
r 7.435062 2 3 tcp 1040 ------- 1 0.0 4.0 10 25
+ 7.435062 3 4 tcp 1040 ------- 1 0.0 4.0 10 25
- 7.435062 3 4 tcp 1040 ------- 1 0.0 4.0 10 25
r 7.435071 2 3 tcp 1040 ------- 1 0.0 4.0 11 26
+ 7.435071 3 4 tcp 1040 ------- 1 0.0 4.0 11 26
- 7.435071 3 4 tcp 1040 ------- 1 0.0 4.0 11 26
r 7.435079 2 3 tcp 1040 ------- 1 0.0 4.0 12 27
+ 7.435079 3 4 tcp 1040 ------- 1 0.0 4.0 12 27
- 7.435079 3 4 tcp 1040 ------- 1 0.0 4.0 12 27
r 7.435087 2 3 tcp 1040 ------- 1 0.0 4.0 13 28
+ 7.435087 3 4 tcp 1040 ------- 1 0.0 4.0 13 28
- 7.435087 3 4 tcp 1040 ------- 1 0.0 4.0 13 28
r 7.435096 2 3 tcp 1040 ------- 1 0.0 4.0 14 29
+ 7.435096 3 4 tcp 1040 ------- 1 0.0 4.0 14 29
- 7.435096 3 4 tcp 1040 ------- 1 0.0 4.0 14 29
r 7.607016 1 2 tcp 1040 ------- 2 1.0 5.0 3 21
+ 7.607016 2 3 tcp 1040 ------- 2 1.0 5.0 3 21
- 7.607016 2 3 tcp 1040 ------- 2 1.0 5.0 3 21
r 7.657024 2 3 tcp 1040 ------- 2 1.0 5.0 3 21
+ 7.657024 3 5 tcp 1040 ------- 2 1.0 5.0 3 21
- 7.657024 3 5 tcp 1040 ------- 2 1.0 5.0 3 21
r 7.980039 3 4 tcp 1040 ------- 1 0.0 4.0 7 22
+ 7.980039 4 3 ack 40 ------- 1 4.0 0.0 7 30
- 7.980039 4 3 ack 40 ------- 1 4.0 0.0 7 30
r 7.980048 3 4 tcp 1040 ------- 1 0.0 4.0 8 23
+ 7.980048 4 3 ack 40 ------- 1 4.0 0.0 8 31
- 7.980048 4 3 ack 40 ------- 1 4.0 0.0 8 31
r 7.980056 3 4 tcp 1040 ------- 1 0.0 4.0 9 24
+ 7.980056 4 3 ack 40 ------- 1 4.0 0.0 9 32
- 7.980056 4 3 ack 40 ------- 1 4.0 0.0 9 32
r 7.980064 3 4 tcp 1040 ------- 1 0.0 4.0 10 25
+ 7.980064 4 3 ack 40 ------- 1 4.0 0.0 10 33
- 7.980064 4 3 ack 40 ------- 1 4.0 0.0 10 33
r 7.980073 3 4 tcp 1040 ------- 1 0.0 4.0 11 26
+ 7.980073 4 3 ack 40 ------- 1 4.0 0.0 11 34
- 7.980073 4 3 ack 40 ------- 1 4.0 0.0 11 34
r 7.980081 3 4 tcp 1040 ------- 1 0.0 4.0 12 27
+ 7.980081 4 3 ack 40 ------- 1 4.0 0.0 12 35
- 7.980081 4 3 ack 40 ------- 1 4.0 0.0 12 35
r 7.980089 3 4 tcp 1040 ------- 1 0.0 4.0 13 28
+ 7.980089 4 3 ack 40 ------- 1 4.0 0.0 13 36
- 7.980089 4 3 ack 40 ------- 1 4.0 0.0 13 36
r 7.980098 3 4 tcp 1040 ------- 1 0.0 4.0 14 29
+ 7.980098 4 3 ack 40 ------- 1 4.0 0.0 14 37
- 7.980098 4 3 ack 40 ------- 1 4.0 0.0 14 37
r 8.088013 3 5 tcp 1040 ------- 2 1.0 5.0 2 20
+ 8.088013 5 3 ack 40 ------- 2 5.0 1.0 2 38
- 8.088013 5 3 ack 40 ------- 2 5.0 1.0 2 38
r 8.480026 3 5 tcp 1040 ------- 2 1.0 5.0 3 21
+ 8.480026 5 3 ack 40 ------- 2 5.0 1.0 3 39
- 8.480026 5 3 ack 40 ------- 2 5.0 1.0 3 39
r 8.525039 4 3 ack 40 ------- 1 4.0 0.0 7 30
+ 8.525039 3 2 ack 40 ------- 1 4.0 0.0 7 30
- 8.525039 3 2 ack 40 ------- 1 4.0 0.0 7 30
r 8.525048 4 3 ack 40 ------- 1 4.0 0.0 8 31
+ 8.525048 3 2 ack 40 ------- 1 4.0 0.0 8 31
- 8.525048 3 2 ack 40 ------- 1 4.0 0.0 8 31
r 8.525056 4 3 ack 40 ------- 1 4.0 0.0 9 32
+ 8.525056 3 2 ack 40 ------- 1 4.0 0.0 9 32
- 8.525056 3 2 ack 40 ------- 1 4.0 0.0 9 32
r 8.525064 4 3 ack 40 ------- 1 4.0 0.0 10 33
+ 8.525064 3 2 ack 40 ------- 1 4.0 0.0 10 33
- 8.525064 3 2 ack 40 ------- 1 4.0 0.0 10 33
r 8.525073 4 3 ack 40 ------- 1 4.0 0.0 11 34
+ 8.525073 3 2 ack 40 ------- 1 4.0 0.0 11 34
- 8.525073 3 2 ack 40 ------- 1 4.0 0.0 11 34
r 8.525081 4 3 ack 40 ------- 1 4.0 0.0 12 35
+ 8.525081 3 2 ack 40 ------- 1 4.0 0.0 12 35
- 8.525081 3 2 ack 40 ------- 1 4.0 0.0 12 35
r 8.525089 4 3 ack 40 ------- 1 4.0 0.0 13 36
+ 8.525089 3 2 ack 40 ------- 1 4.0 0.0 13 36
- 8.525089 3 2 ack 40 ------- 1 4.0 0.0 13 36
r 8.525098 4 3 ack 40 ------- 1 4.0 0.0 14 37
+ 8.525098 3 2 ack 40 ------- 1 4.0 0.0 14 37
- 8.525098 3 2 ack 40 ------- 1 4.0 0.0 14 37
r 8.57504 3 2 ack 40 ------- 1 4.0 0.0 7 30
+ 8.57504 2 0 ack 40 ------- 1 4.0 0.0 7 30
- 8.57504 2 0 ack 40 ------- 1 4.0 0.0 7 30
r 8.575048 3 2 ack 40 ------- 1 4.0 0.0 8 31
+ 8.575048 2 0 ack 40 ------- 1 4.0 0.0 8 31
- 8.575048 2 0 ack 40 ------- 1 4.0 0.0 8 31
r 8.575056 3 2 ack 40 ------- 1 4.0 0.0 9 32
+ 8.575056 2 0 ack 40 ------- 1 4.0 0.0 9 32
- 8.575056 2 0 ack 40 ------- 1 4.0 0.0 9 32
r 8.575065 3 2 ack 40 ------- 1 4.0 0.0 10 33
+ 8.575065 2 0 ack 40 ------- 1 4.0 0.0 10 33
- 8.575065 2 0 ack 40 ------- 1 4.0 0.0 10 33
r 8.575073 3 2 ack 40 ------- 1 4.0 0.0 11 34
+ 8.575073 2 0 ack 40 ------- 1 4.0 0.0 11 34
- 8.575073 2 0 ack 40 ------- 1 4.0 0.0 11 34
r 8.575081 3 2 ack 40 ------- 1 4.0 0.0 12 35
+ 8.575081 2 0 ack 40 ------- 1 4.0 0.0 12 35
- 8.575081 2 0 ack 40 ------- 1 4.0 0.0 12 35
r 8.57509 3 2 ack 40 ------- 1 4.0 0.0 13 36
+ 8.57509 2 0 ack 40 ------- 1 4.0 0.0 13 36
- 8.57509 2 0 ack 40 ------- 1 4.0 0.0 13 36
r 8.575098 3 2 ack 40 ------- 1 4.0 0.0 14 37
+ 8.575098 2 0 ack 40 ------- 1 4.0 0.0 14 37
- 8.575098 2 0 ack 40 ------- 1 4.0 0.0 14 37
r 8.911014 5 3 ack 40 ------- 2 5.0 1.0 2 38
+ 8.911014 3 2 ack 40 ------- 2 5.0 1.0 2 38
- 8.911014 3 2 ack 40 ------- 2 5.0 1.0 2 38
r 8.961014 3 2 ack 40 ------- 2 5.0 1.0 2 38
+ 8.961014 2 1 ack 40 ------- 2 5.0 1.0 2 38
- 8.961014 2 1 ack 40 ------- 2 5.0 1.0 2 38
r 9.12004 2 0 ack 40 ------- 1 4.0 0.0 7 30
9.12004  0  0  4  0  ack_ 7
9.12004  0  0  4  0  cwnd_ 9.000 
+ 9.12004 0 2 tcp 1040 ------- 1 0.0 4.0 15 40
- 9.12004 0 2 tcp 1040 ------- 1 0.0 4.0 15 40
9.12004  0  0  4  0  maxseq_ 15
+ 9.12004 0 2 tcp 1040 ------- 1 0.0 4.0 16 41
9.12004  0  0  4  0  maxseq_ 16
- 9.120042 0 2 tcp 1040 ------- 1 0.0 4.0 16 41
r 9.120048 2 0 ack 40 ------- 1 4.0 0.0 8 31
9.12005  0  0  4  0  ack_ 8
9.12005  0  0  4  0  cwnd_ 10.000
+ 9.120048 0 2 tcp 1040 ------- 1 0.0 4.0 17 42
- 9.120048 0 2 tcp 1040 ------- 1 0.0 4.0 17 42
9.12005  0  0  4  0  maxseq_ 17
+ 9.120048 0 2 tcp 1040 ------- 1 0.0 4.0 18 43
9.12005  0  0  4  0  maxseq_ 18
- 9.12005 0 2 tcp 1040 ------- 1 0.0 4.0 18 43
r 9.120056 2 0 ack 40 ------- 1 4.0 0.0 9 32
9.12006  0  0  4  0  ack_ 9
9.12006  0  0  4  0  cwnd_ 11.000
+ 9.120056 0 2 tcp 1040 ------- 1 0.0 4.0 19 44
- 9.120056 0 2 tcp 1040 ------- 1 0.0 4.0 19 44
9.12006  0  0  4  0  maxseq_ 19
+ 9.120056 0 2 tcp 1040 ------- 1 0.0 4.0 20 45
9.12006  0  0  4  0  maxseq_ 20
- 9.120059 0 2 tcp 1040 ------- 1 0.0 4.0 20 45
r 9.120065 2 0 ack 40 ------- 1 4.0 0.0 10 33
9.12006  0  0  4  0  ack_ 10
9.12006  0  0  4  0  cwnd_ 12.000
+ 9.120065 0 2 tcp 1040 ------- 1 0.0 4.0 21 46
- 9.120065 0 2 tcp 1040 ------- 1 0.0 4.0 21 46
9.12006  0  0  4  0  maxseq_ 21
+ 9.120065 0 2 tcp 1040 ------- 1 0.0 4.0 22 47
9.12006  0  0  4  0  maxseq_ 22
- 9.120067 0 2 tcp 1040 ------- 1 0.0 4.0 22 47
r 9.120073 2 0 ack 40 ------- 1 4.0 0.0 11 34
9.12007  0  0  4  0  ack_ 11
9.12007  0  0  4  0  cwnd_ 13.000
+ 9.120073 0 2 tcp 1040 ------- 1 0.0 4.0 23 48
- 9.120073 0 2 tcp 1040 ------- 1 0.0 4.0 23 48
9.12007  0  0  4  0  maxseq_ 23
+ 9.120073 0 2 tcp 1040 ------- 1 0.0 4.0 24 49
9.12007  0  0  4  0  maxseq_ 24
- 9.120075 0 2 tcp 1040 ------- 1 0.0 4.0 24 49
r 9.120081 2 0 ack 40 ------- 1 4.0 0.0 12 35
9.12008  0  0  4  0  ack_ 12
9.12008  0  0  4  0  cwnd_ 14.000
+ 9.120081 0 2 tcp 1040 ------- 1 0.0 4.0 25 50
- 9.120081 0 2 tcp 1040 ------- 1 0.0 4.0 25 50
9.12008  0  0  4  0  maxseq_ 25
+ 9.120081 0 2 tcp 1040 ------- 1 0.0 4.0 26 51
9.12008  0  0  4  0  maxseq_ 26
- 9.120084 0 2 tcp 1040 ------- 1 0.0 4.0 26 51
r 9.12009 2 0 ack 40 ------- 1 4.0 0.0 13 36
9.12009  0  0  4  0  ack_ 13
9.12009  0  0  4  0  cwnd_ 15.000
+ 9.12009 0 2 tcp 1040 ------- 1 0.0 4.0 27 52
- 9.12009 0 2 tcp 1040 ------- 1 0.0 4.0 27 52
9.12009  0  0  4  0  maxseq_ 27
+ 9.12009 0 2 tcp 1040 ------- 1 0.0 4.0 28 53
9.12009  0  0  4  0  maxseq_ 28
- 9.120092 0 2 tcp 1040 ------- 1 0.0 4.0 28 53
r 9.120098 2 0 ack 40 ------- 1 4.0 0.0 14 37
9.12010  0  0  4  0  ack_ 14
9.12010  0  0  4  0  cwnd_ 16.000
+ 9.120098 0 2 tcp 1040 ------- 1 0.0 4.0 29 54
- 9.120098 0 2 tcp 1040 ------- 1 0.0 4.0 29 54
9.12010  0  0  4  0  maxseq_ 29
+ 9.120098 0 2 tcp 1040 ------- 1 0.0 4.0 30 55
9.12010  0  0  4  0  maxseq_ 30
- 9.1201 0 2 tcp 1040 ------- 1 0.0 4.0 30 55
r 9.303026 5 3 ack 40 ------- 2 5.0 1.0 3 39
+ 9.303026 3 2 ack 40 ------- 2 5.0 1.0 3 39
- 9.303026 3 2 ack 40 ------- 2 5.0 1.0 3 39
r 9.353027 3 2 ack 40 ------- 2 5.0 1.0 3 39
+ 9.353027 2 1 ack 40 ------- 2 5.0 1.0 3 39
- 9.353027 2 1 ack 40 ------- 2 5.0 1.0 3 39
r 9.665042 0 2 tcp 1040 ------- 1 0.0 4.0 15 40
+ 9.665042 2 3 tcp 1040 ------- 1 0.0 4.0 15 40
- 9.665042 2 3 tcp 1040 ------- 1 0.0 4.0 15 40
r 9.665044 0 2 tcp 1040 ------- 1 0.0 4.0 16 41
+ 9.665044 2 3 tcp 1040 ------- 1 0.0 4.0 16 41
- 9.66505 2 3 tcp 1040 ------- 1 0.0 4.0 16 41
r 9.66505 0 2 tcp 1040 ------- 1 0.0 4.0 17 42
+ 9.66505 2 3 tcp 1040 ------- 1 0.0 4.0 17 42
r 9.665052 0 2 tcp 1040 ------- 1 0.0 4.0 18 43
+ 9.665052 2 3 tcp 1040 ------- 1 0.0 4.0 18 43
- 9.665059 2 3 tcp 1040 ------- 1 0.0 4.0 17 42
r 9.665059 0 2 tcp 1040 ------- 1 0.0 4.0 19 44
+ 9.665059 2 3 tcp 1040 ------- 1 0.0 4.0 19 44
r 9.665061 0 2 tcp 1040 ------- 1 0.0 4.0 20 45
+ 9.665061 2 3 tcp 1040 ------- 1 0.0 4.0 20 45
- 9.665067 2 3 tcp 1040 ------- 1 0.0 4.0 18 43
r 9.665067 0 2 tcp 1040 ------- 1 0.0 4.0 21 46
+ 9.665067 2 3 tcp 1040 ------- 1 0.0 4.0 21 46
r 9.665069 0 2 tcp 1040 ------- 1 0.0 4.0 22 47
+ 9.665069 2 3 tcp 1040 ------- 1 0.0 4.0 22 47
- 9.665075 2 3 tcp 1040 ------- 1 0.0 4.0 19 44
r 9.665075 0 2 tcp 1040 ------- 1 0.0 4.0 23 48
+ 9.665075 2 3 tcp 1040 ------- 1 0.0 4.0 23 48
r 9.665077 0 2 tcp 1040 ------- 1 0.0 4.0 24 49
+ 9.665077 2 3 tcp 1040 ------- 1 0.0 4.0 24 49
- 9.665084 2 3 tcp 1040 ------- 1 0.0 4.0 20 45
r 9.665084 0 2 tcp 1040 ------- 1 0.0 4.0 25 50
+ 9.665084 2 3 tcp 1040 ------- 1 0.0 4.0 25 50
r 9.665086 0 2 tcp 1040 ------- 1 0.0 4.0 26 51
+ 9.665086 2 3 tcp 1040 ------- 1 0.0 4.0 26 51
- 9.665092 2 3 tcp 1040 ------- 1 0.0 4.0 21 46
r 9.665092 0 2 tcp 1040 ------- 1 0.0 4.0 27 52
+ 9.665092 2 3 tcp 1040 ------- 1 0.0 4.0 27 52
r 9.665094 0 2 tcp 1040 ------- 1 0.0 4.0 28 53
+ 9.665094 2 3 tcp 1040 ------- 1 0.0 4.0 28 53
- 9.6651 2 3 tcp 1040 ------- 1 0.0 4.0 22 47
r 9.6651 0 2 tcp 1040 ------- 1 0.0 4.0 29 54
+ 9.6651 2 3 tcp 1040 ------- 1 0.0 4.0 29 54
r 9.665102 0 2 tcp 1040 ------- 1 0.0 4.0 30 55
+ 9.665102 2 3 tcp 1040 ------- 1 0.0 4.0 30 55
- 9.665108 2 3 tcp 1040 ------- 1 0.0 4.0 23 48
- 9.665117 2 3 tcp 1040 ------- 1 0.0 4.0 24 49
- 9.665125 2 3 tcp 1040 ------- 1 0.0 4.0 25 50
- 9.665133 2 3 tcp 1040 ------- 1 0.0 4.0 26 51
- 9.665142 2 3 tcp 1040 ------- 1 0.0 4.0 27 52
- 9.66515 2 3 tcp 1040 ------- 1 0.0 4.0 28 53
- 9.665158 2 3 tcp 1040 ------- 1 0.0 4.0 29 54
- 9.665167 2 3 tcp 1040 ------- 1 0.0 4.0 30 55
r 9.71505 2 3 tcp 1040 ------- 1 0.0 4.0 15 40
+ 9.71505 3 4 tcp 1040 ------- 1 0.0 4.0 15 40
- 9.71505 3 4 tcp 1040 ------- 1 0.0 4.0 15 40
r 9.715059 2 3 tcp 1040 ------- 1 0.0 4.0 16 41
+ 9.715059 3 4 tcp 1040 ------- 1 0.0 4.0 16 41
- 9.715059 3 4 tcp 1040 ------- 1 0.0 4.0 16 41
r 9.715067 2 3 tcp 1040 ------- 1 0.0 4.0 17 42
+ 9.715067 3 4 tcp 1040 ------- 1 0.0 4.0 17 42
- 9.715067 3 4 tcp 1040 ------- 1 0.0 4.0 17 42
r 9.715075 2 3 tcp 1040 ------- 1 0.0 4.0 18 43
+ 9.715075 3 4 tcp 1040 ------- 1 0.0 4.0 18 43
- 9.715075 3 4 tcp 1040 ------- 1 0.0 4.0 18 43
r 9.715084 2 3 tcp 1040 ------- 1 0.0 4.0 19 44
+ 9.715084 3 4 tcp 1040 ------- 1 0.0 4.0 19 44
- 9.715084 3 4 tcp 1040 ------- 1 0.0 4.0 19 44
r 9.715092 2 3 tcp 1040 ------- 1 0.0 4.0 20 45
+ 9.715092 3 4 tcp 1040 ------- 1 0.0 4.0 20 45
- 9.715092 3 4 tcp 1040 ------- 1 0.0 4.0 20 45
r 9.7151 2 3 tcp 1040 ------- 1 0.0 4.0 21 46
+ 9.7151 3 4 tcp 1040 ------- 1 0.0 4.0 21 46
- 9.7151 3 4 tcp 1040 ------- 1 0.0 4.0 21 46
r 9.715108 2 3 tcp 1040 ------- 1 0.0 4.0 22 47
+ 9.715108 3 4 tcp 1040 ------- 1 0.0 4.0 22 47
- 9.715108 3 4 tcp 1040 ------- 1 0.0 4.0 22 47
r 9.715117 2 3 tcp 1040 ------- 1 0.0 4.0 23 48
+ 9.715117 3 4 tcp 1040 ------- 1 0.0 4.0 23 48
- 9.715117 3 4 tcp 1040 ------- 1 0.0 4.0 23 48
r 9.715125 2 3 tcp 1040 ------- 1 0.0 4.0 24 49
+ 9.715125 3 4 tcp 1040 ------- 1 0.0 4.0 24 49
- 9.715125 3 4 tcp 1040 ------- 1 0.0 4.0 24 49
r 9.715133 2 3 tcp 1040 ------- 1 0.0 4.0 25 50
+ 9.715133 3 4 tcp 1040 ------- 1 0.0 4.0 25 50
- 9.715133 3 4 tcp 1040 ------- 1 0.0 4.0 25 50
r 9.715142 2 3 tcp 1040 ------- 1 0.0 4.0 26 51
+ 9.715142 3 4 tcp 1040 ------- 1 0.0 4.0 26 51
- 9.715142 3 4 tcp 1040 ------- 1 0.0 4.0 26 51
r 9.71515 2 3 tcp 1040 ------- 1 0.0 4.0 27 52
+ 9.71515 3 4 tcp 1040 ------- 1 0.0 4.0 27 52
- 9.71515 3 4 tcp 1040 ------- 1 0.0 4.0 27 52
r 9.715158 2 3 tcp 1040 ------- 1 0.0 4.0 28 53
+ 9.715158 3 4 tcp 1040 ------- 1 0.0 4.0 28 53
- 9.715158 3 4 tcp 1040 ------- 1 0.0 4.0 28 53
r 9.715167 2 3 tcp 1040 ------- 1 0.0 4.0 29 54
+ 9.715167 3 4 tcp 1040 ------- 1 0.0 4.0 29 54
- 9.715167 3 4 tcp 1040 ------- 1 0.0 4.0 29 54
r 9.715175 2 3 tcp 1040 ------- 1 0.0 4.0 30 55
+ 9.715175 3 4 tcp 1040 ------- 1 0.0 4.0 30 55
- 9.715175 3 4 tcp 1040 ------- 1 0.0 4.0 30 55
r 9.784014 2 1 ack 40 ------- 2 5.0 1.0 2 38
9.78401  1  0  5  0  ack_ 2
9.78401  1  0  5  0  cwnd_ 2.500 
+ 9.784014 1 2 tcp 1040 ------- 2 1.0 5.0 4 56
- 9.784014 1 2 tcp 1040 ------- 2 1.0 5.0 4 56
9.78401  1  0  5  0  maxseq_ 4
r 10.176027 2 1 ack 40 ------- 2 5.0 1.0 3 39
10.17603 1  0  5  0  ack_ 3
10.17603 1  0  5  0  cwnd_ 2.900 
+ 10.176027 1 2 tcp 1040 ------- 2 1.0 5.0 5 57
- 10.176027 1 2 tcp 1040 ------- 2 1.0 5.0 5 57
10.17603 1  0  5  0  maxseq_ 5
r 10.260052 3 4 tcp 1040 ------- 1 0.0 4.0 15 40
+ 10.260052 4 3 ack 40 ------- 1 4.0 0.0 15 58
- 10.260052 4 3 ack 40 ------- 1 4.0 0.0 15 58
r 10.260061 3 4 tcp 1040 ------- 1 0.0 4.0 16 41
+ 10.260061 4 3 ack 40 ------- 1 4.0 0.0 16 59
- 10.260061 4 3 ack 40 ------- 1 4.0 0.0 16 59
r 10.260069 3 4 tcp 1040 ------- 1 0.0 4.0 17 42
+ 10.260069 4 3 ack 40 ------- 1 4.0 0.0 17 60
- 10.260069 4 3 ack 40 ------- 1 4.0 0.0 17 60
r 10.260077 3 4 tcp 1040 ------- 1 0.0 4.0 18 43
+ 10.260077 4 3 ack 40 ------- 1 4.0 0.0 18 61
- 10.260077 4 3 ack 40 ------- 1 4.0 0.0 18 61
r 10.260086 3 4 tcp 1040 ------- 1 0.0 4.0 19 44
+ 10.260086 4 3 ack 40 ------- 1 4.0 0.0 19 62
- 10.260086 4 3 ack 40 ------- 1 4.0 0.0 19 62
r 10.260094 3 4 tcp 1040 ------- 1 0.0 4.0 20 45
+ 10.260094 4 3 ack 40 ------- 1 4.0 0.0 20 63
- 10.260094 4 3 ack 40 ------- 1 4.0 0.0 20 63
r 10.260102 3 4 tcp 1040 ------- 1 0.0 4.0 21 46
+ 10.260102 4 3 ack 40 ------- 1 4.0 0.0 21 64
- 10.260102 4 3 ack 40 ------- 1 4.0 0.0 21 64
r 10.260111 3 4 tcp 1040 ------- 1 0.0 4.0 22 47
+ 10.260111 4 3 ack 40 ------- 1 4.0 0.0 22 65
- 10.260111 4 3 ack 40 ------- 1 4.0 0.0 22 65
r 10.260119 3 4 tcp 1040 ------- 1 0.0 4.0 23 48
+ 10.260119 4 3 ack 40 ------- 1 4.0 0.0 23 66
- 10.260119 4 3 ack 40 ------- 1 4.0 0.0 23 66
r 10.260127 3 4 tcp 1040 ------- 1 0.0 4.0 24 49
+ 10.260127 4 3 ack 40 ------- 1 4.0 0.0 24 67
- 10.260127 4 3 ack 40 ------- 1 4.0 0.0 24 67
r 10.260136 3 4 tcp 1040 ------- 1 0.0 4.0 25 50
+ 10.260136 4 3 ack 40 ------- 1 4.0 0.0 25 68
- 10.260136 4 3 ack 40 ------- 1 4.0 0.0 25 68
r 10.260144 3 4 tcp 1040 ------- 1 0.0 4.0 26 51
+ 10.260144 4 3 ack 40 ------- 1 4.0 0.0 26 69
- 10.260144 4 3 ack 40 ------- 1 4.0 0.0 26 69
r 10.260152 3 4 tcp 1040 ------- 1 0.0 4.0 27 52
+ 10.260152 4 3 ack 40 ------- 1 4.0 0.0 27 70
- 10.260152 4 3 ack 40 ------- 1 4.0 0.0 27 70
r 10.26016 3 4 tcp 1040 ------- 1 0.0 4.0 28 53
+ 10.26016 4 3 ack 40 ------- 1 4.0 0.0 28 71
- 10.26016 4 3 ack 40 ------- 1 4.0 0.0 28 71
r 10.260169 3 4 tcp 1040 ------- 1 0.0 4.0 29 54
+ 10.260169 4 3 ack 40 ------- 1 4.0 0.0 29 72
- 10.260169 4 3 ack 40 ------- 1 4.0 0.0 29 72
r 10.260177 3 4 tcp 1040 ------- 1 0.0 4.0 30 55
+ 10.260177 4 3 ack 40 ------- 1 4.0 0.0 30 73
- 10.260177 4 3 ack 40 ------- 1 4.0 0.0 30 73
r 10.607016 1 2 tcp 1040 ------- 2 1.0 5.0 4 56
+ 10.607016 2 3 tcp 1040 ------- 2 1.0 5.0 4 56
- 10.607016 2 3 tcp 1040 ------- 2 1.0 5.0 4 56
r 10.657024 2 3 tcp 1040 ------- 2 1.0 5.0 4 56
+ 10.657024 3 5 tcp 1040 ------- 2 1.0 5.0 4 56
- 10.657024 3 5 tcp 1040 ------- 2 1.0 5.0 4 56
r 10.805052 4 3 ack 40 ------- 1 4.0 0.0 15 58
+ 10.805052 3 2 ack 40 ------- 1 4.0 0.0 15 58
- 10.805052 3 2 ack 40 ------- 1 4.0 0.0 15 58
r 10.805061 4 3 ack 40 ------- 1 4.0 0.0 16 59
+ 10.805061 3 2 ack 40 ------- 1 4.0 0.0 16 59
- 10.805061 3 2 ack 40 ------- 1 4.0 0.0 16 59
r 10.805069 4 3 ack 40 ------- 1 4.0 0.0 17 60
+ 10.805069 3 2 ack 40 ------- 1 4.0 0.0 17 60
- 10.805069 3 2 ack 40 ------- 1 4.0 0.0 17 60
r 10.805077 4 3 ack 40 ------- 1 4.0 0.0 18 61
+ 10.805077 3 2 ack 40 ------- 1 4.0 0.0 18 61
- 10.805077 3 2 ack 40 ------- 1 4.0 0.0 18 61
r 10.805086 4 3 ack 40 ------- 1 4.0 0.0 19 62
+ 10.805086 3 2 ack 40 ------- 1 4.0 0.0 19 62
- 10.805086 3 2 ack 40 ------- 1 4.0 0.0 19 62
r 10.805094 4 3 ack 40 ------- 1 4.0 0.0 20 63
+ 10.805094 3 2 ack 40 ------- 1 4.0 0.0 20 63
- 10.805094 3 2 ack 40 ------- 1 4.0 0.0 20 63
r 10.805102 4 3 ack 40 ------- 1 4.0 0.0 21 64
+ 10.805102 3 2 ack 40 ------- 1 4.0 0.0 21 64
- 10.805102 3 2 ack 40 ------- 1 4.0 0.0 21 64
r 10.805111 4 3 ack 40 ------- 1 4.0 0.0 22 65
+ 10.805111 3 2 ack 40 ------- 1 4.0 0.0 22 65
- 10.805111 3 2 ack 40 ------- 1 4.0 0.0 22 65
r 10.805119 4 3 ack 40 ------- 1 4.0 0.0 23 66
+ 10.805119 3 2 ack 40 ------- 1 4.0 0.0 23 66
- 10.805119 3 2 ack 40 ------- 1 4.0 0.0 23 66
r 10.805127 4 3 ack 40 ------- 1 4.0 0.0 24 67
+ 10.805127 3 2 ack 40 ------- 1 4.0 0.0 24 67
- 10.805127 3 2 ack 40 ------- 1 4.0 0.0 24 67
r 10.805136 4 3 ack 40 ------- 1 4.0 0.0 25 68
+ 10.805136 3 2 ack 40 ------- 1 4.0 0.0 25 68
- 10.805136 3 2 ack 40 ------- 1 4.0 0.0 25 68
r 10.805144 4 3 ack 40 ------- 1 4.0 0.0 26 69
+ 10.805144 3 2 ack 40 ------- 1 4.0 0.0 26 69
- 10.805144 3 2 ack 40 ------- 1 4.0 0.0 26 69
r 10.805152 4 3 ack 40 ------- 1 4.0 0.0 27 70
+ 10.805152 3 2 ack 40 ------- 1 4.0 0.0 27 70
- 10.805152 3 2 ack 40 ------- 1 4.0 0.0 27 70