0.00000  0  0  4  0  cwnd_ 1.000 
0.00000  0  0  4  0  ssthresh_ 20
0.00000  0  0  4  0  ack_ -1
0.00000  0  0  4  0  maxseq_ -1
0.00000  0  0  4  0  rtt_ 0.000 
0.00000  1  0  5  0  cwnd_ 1.000 
0.00000  1  0  5  0  ssthresh_ 20
0.00000  1  0  5  0  ack_ -1
0.00000  1  0  5  0  maxseq_ -1
0.00000  1  0  5  0  rtt_ 0.000 
0.00000  0  0  4  0  ssthresh_ 1000
0.00000  1  0  5  0  ssthresh_ 1000
+ 0 1 2 tcp 40 ------- 2 1.0 5.0 0 0
- 0 1 2 tcp 40 ------- 2 1.0 5.0 0 0
0.00000  1  0  5  0  maxseq_ 0
+ 0 0 2 tcp 40 ------- 1 0.0 4.0 0 1
- 0 0 2 tcp 40 ------- 1 0.0 4.0 0 1
0.00000  0  0  4  0  maxseq_ 0
r 0.589 0 2 tcp 40 ------- 1 0.0 4.0 0 1
+ 0.589 2 3 tcp 40 ------- 1 0.0 4.0 0 1
- 0.589 2 3 tcp 40 ------- 1 0.0 4.0 0 1
r 0.639 2 3 tcp 40 ------- 1 0.0 4.0 0 1
+ 0.639 3 4 tcp 40 ------- 1 0.0 4.0 0 1
- 0.639 3 4 tcp 40 ------- 1 0.0 4.0 0 1
r 0.867 1 2 tcp 40 ------- 2 1.0 5.0 0 0
+ 0.867 2 3 tcp 40 ------- 2 1.0 5.0 0 0
- 0.867 2 3 tcp 40 ------- 2 1.0 5.0 0 0
r 0.917 2 3 tcp 40 ------- 2 1.0 5.0 0 0
+ 0.917 3 5 tcp 40 ------- 2 1.0 5.0 0 0
- 0.917 3 5 tcp 40 ------- 2 1.0 5.0 0 0
r 1.228 3 4 tcp 40 ------- 1 0.0 4.0 0 1
+ 1.228 4 3 ack 40 ------- 1 4.0 0.0 0 2
- 1.228 4 3 ack 40 ------- 1 4.0 0.0 0 2
r 1.784 3 5 tcp 40 ------- 2 1.0 5.0 0 0
+ 1.784 5 3 ack 40 ------- 2 5.0 1.0 0 3
- 1.784 5 3 ack 40 ------- 2 5.0 1.0 0 3
r 1.817001 4 3 ack 40 ------- 1 4.0 0.0 0 2
+ 1.817001 3 2 ack 40 ------- 1 4.0 0.0 0 2
- 1.817001 3 2 ack 40 ------- 1 4.0 0.0 0 2
r 1.867001 3 2 ack 40 ------- 1 4.0 0.0 0 2
+ 1.867001 2 0 ack 40 ------- 1 4.0 0.0 0 2
- 1.867001 2 0 ack 40 ------- 1 4.0 0.0 0 2
r 2.456001 2 0 ack 40 ------- 1 4.0 0.0 0 2
2.45600  0  0  4  0  ack_ 0
2.45600  0  0  4  0  rtt_ 2.460 
2.45600  0  0  4  0  cwnd_ 2.000 
+ 2.456001 0 2 tcp 1040 ------- 1 0.0 4.0 1 4
- 2.456001 0 2 tcp 1040 ------- 1 0.0 4.0 1 4
2.45600  0  0  4  0  maxseq_ 1
+ 2.456001 0 2 tcp 1040 ------- 1 0.0 4.0 2 5
2.45600  0  0  4  0  maxseq_ 2
- 2.456003 0 2 tcp 1040 ------- 1 0.0 4.0 2 5
r 2.651001 5 3 ack 40 ------- 2 5.0 1.0 0 3
+ 2.651001 3 2 ack 40 ------- 2 5.0 1.0 0 3
- 2.651001 3 2 ack 40 ------- 2 5.0 1.0 0 3
r 2.701001 3 2 ack 40 ------- 2 5.0 1.0 0 3
+ 2.701001 2 1 ack 40 ------- 2 5.0 1.0 0 3
- 2.701001 2 1 ack 40 ------- 2 5.0 1.0 0 3
3.00000  1  0  5  0  ssthresh_ 0
3.00000  1  0  5  0  ssthresh_ 2
+ 3 1 2 tcp 40 ---A--- 2 1.0 5.0 0 6
- 3 1 2 tcp 40 ---A--- 2 1.0 5.0 0 6
r 3.045003 0 2 tcp 1040 ------- 1 0.0 4.0 1 4
+ 3.045003 2 3 tcp 1040 ------- 1 0.0 4.0 1 4
- 3.045003 2 3 tcp 1040 ------- 1 0.0 4.0 1 4
r 3.045005 0 2 tcp 1040 ------- 1 0.0 4.0 2 5
+ 3.045005 2 3 tcp 1040 ------- 1 0.0 4.0 2 5
- 3.045011 2 3 tcp 1040 ------- 1 0.0 4.0 2 5
r 3.095011 2 3 tcp 1040 ------- 1 0.0 4.0 1 4
+ 3.095011 3 4 tcp 1040 ------- 1 0.0 4.0 1 4
- 3.095011 3 4 tcp 1040 ------- 1 0.0 4.0 1 4
r 3.09502 2 3 tcp 1040 ------- 1 0.0 4.0 2 5
+ 3.09502 3 4 tcp 1040 ------- 1 0.0 4.0 2 5
- 3.09502 3 4 tcp 1040 ------- 1 0.0 4.0 2 5
r 3.568001 2 1 ack 40 ------- 2 5.0 1.0 0 3
3.56800  1  0  5  0  ack_ 0
3.56800  1  0  5  0  cwnd_ 2.000 
3.56800  1  0  5  0  cwnd_ 1.000 
+ 3.568001 1 2 tcp 1040 ------- 2 1.0 5.0 1 7
- 3.568001 1 2 tcp 1040 ------- 2 1.0 5.0 1 7
3.56800  1  0  5  0  maxseq_ 1
r 3.684013 3 4 tcp 1040 ------- 1 0.0 4.0 1 4
+ 3.684013 4 3 ack 40 ------- 1 4.0 0.0 1 8
- 3.684013 4 3 ack 40 ------- 1 4.0 0.0 1 8
r 3.684022 3 4 tcp 1040 ------- 1 0.0 4.0 2 5
+ 3.684022 4 3 ack 40 ------- 1 4.0 0.0 2 9
- 3.684022 4 3 ack 40 ------- 1 4.0 0.0 2 9
r 3.867 1 2 tcp 40 ---A--- 2 1.0 5.0 0 6
+ 3.867 2 3 tcp 40 ---A--- 2 1.0 5.0 0 6
- 3.867 2 3 tcp 40 ---A--- 2 1.0 5.0 0 6
r 3.917 2 3 tcp 40 ---A--- 2 1.0 5.0 0 6
+ 3.917 3 5 tcp 40 ---A--- 2 1.0 5.0 0 6
- 3.917 3 5 tcp 40 ---A--- 2 1.0 5.0 0 6
r 4.273014 4 3 ack 40 ------- 1 4.0 0.0 1 8
+ 4.273014 3 2 ack 40 ------- 1 4.0 0.0 1 8
- 4.273014 3 2 ack 40 ------- 1 4.0 0.0 1 8
r 4.273022 4 3 ack 40 ------- 1 4.0 0.0 2 9
+ 4.273022 3 2 ack 40 ------- 1 4.0 0.0 2 9
- 4.273022 3 2 ack 40 ------- 1 4.0 0.0 2 9
r 4.323014 3 2 ack 40 ------- 1 4.0 0.0 1 8
+ 4.323014 2 0 ack 40 ------- 1 4.0 0.0 1 8
- 4.323014 2 0 ack 40 ------- 1 4.0 0.0 1 8
r 4.323022 3 2 ack 40 ------- 1 4.0 0.0 2 9
+ 4.323022 2 0 ack 40 ------- 1 4.0 0.0 2 9
- 4.323022 2 0 ack 40 ------- 1 4.0 0.0 2 9
r 4.435003 1 2 tcp 1040 ------- 2 1.0 5.0 1 7
+ 4.435003 2 3 tcp 1040 ------- 2 1.0 5.0 1 7
- 4.435003 2 3 tcp 1040 ------- 2 1.0 5.0 1 7
r 4.485011 2 3 tcp 1040 ------- 2 1.0 5.0 1 7
+ 4.485011 3 5 tcp 1040 ------- 2 1.0 5.0 1 7
- 4.485011 3 5 tcp 1040 ------- 2 1.0 5.0 1 7
r 4.784 3 5 tcp 40 ---A--- 2 1.0 5.0 0 6
+ 4.784 5 3 ack 40 ------- 2 5.0 1.0 0 10
- 4.784 5 3 ack 40 ------- 2 5.0 1.0 0 10
r 4.912014 2 0 ack 40 ------- 1 4.0 0.0 1 8
4.91201  0  0  4  0  ack_ 1
4.91201  0  0  4  0  rtt_ 2.450 
4.91201  0  0  4  0  cwnd_ 3.000 
+ 4.912014 0 2 tcp 1040 ------- 1 0.0 4.0 3 11
- 4.912014 0 2 tcp 1040 ------- 1 0.0 4.0 3 11
4.91201  0  0  4  0  maxseq_ 3
+ 4.912014 0 2 tcp 1040 ------- 1 0.0 4.0 4 12
4.91201  0  0  4  0  maxseq_ 4
- 4.912016 0 2 tcp 1040 ------- 1 0.0 4.0 4 12
r 4.912022 2 0 ack 40 ------- 1 4.0 0.0 2 9
4.91202  0  0  4  0  ack_ 2
4.91202  0  0  4  0  cwnd_ 4.000 
+ 4.912022 0 2 tcp 1040 ------- 1 0.0 4.0 5 13
- 4.912022 0 2 tcp 1040 ------- 1 0.0 4.0 5 13
4.91202  0  0  4  0  maxseq_ 5
+ 4.912022 0 2 tcp 1040 ------- 1 0.0 4.0 6 14
4.91202  0  0  4  0  maxseq_ 6
- 4.912024 0 2 tcp 1040 ------- 1 0.0 4.0 6 14
r 5.352013 3 5 tcp 1040 ------- 2 1.0 5.0 1 7
+ 5.352013 5 3 ack 40 ------- 2 5.0 1.0 1 15
- 5.352013 5 3 ack 40 ------- 2 5.0 1.0 1 15
r 5.501016 0 2 tcp 1040 ------- 1 0.0 4.0 3 11
+ 5.501016 2 3 tcp 1040 ------- 1 0.0 4.0 3 11
- 5.501016 2 3 tcp 1040 ------- 1 0.0 4.0 3 11
r 5.501018 0 2 tcp 1040 ------- 1 0.0 4.0 4 12
+ 5.501018 2 3 tcp 1040 ------- 1 0.0 4.0 4 12
r 5.501024 0 2 tcp 1040 ------- 1 0.0 4.0 5 13
+ 5.501024 2 3 tcp 1040 ------- 1 0.0 4.0 5 13
- 5.501024 2 3 tcp 1040 ------- 1 0.0 4.0 4 12
r 5.501026 0 2 tcp 1040 ------- 1 0.0 4.0 6 14
+ 5.501026 2 3 tcp 1040 ------- 1 0.0 4.0 6 14
- 5.501033 2 3 tcp 1040 ------- 1 0.0 4.0 5 13
- 5.501041 2 3 tcp 1040 ------- 1 0.0 4.0 6 14
r 5.551024 2 3 tcp 1040 ------- 1 0.0 4.0 3 11
+ 5.551024 3 4 tcp 1040 ------- 1 0.0 4.0 3 11
- 5.551024 3 4 tcp 1040 ------- 1 0.0 4.0 3 11
r 5.551033 2 3 tcp 1040 ------- 1 0.0 4.0 4 12
+ 5.551033 3 4 tcp 1040 ------- 1 0.0 4.0 4 12
- 5.551033 3 4 tcp 1040 ------- 1 0.0 4.0 4 12
r 5.551041 2 3 tcp 1040 ------- 1 0.0 4.0 5 13
+ 5.551041 3 4 tcp 1040 ------- 1 0.0 4.0 5 13
- 5.551041 3 4 tcp 1040 ------- 1 0.0 4.0 5 13
r 5.551049 2 3 tcp 1040 ------- 1 0.0 4.0 6 14
+ 5.551049 3 4 tcp 1040 ------- 1 0.0 4.0 6 14
- 5.551049 3 4 tcp 1040 ------- 1 0.0 4.0 6 14
r 5.651001 5 3 ack 40 ------- 2 5.0 1.0 0 10
+ 5.651001 3 2 ack 40 ------- 2 5.0 1.0 0 10
- 5.651001 3 2 ack 40 ------- 2 5.0 1.0 0 10
r 5.701001 3 2 ack 40 ------- 2 5.0 1.0 0 10
+ 5.701001 2 1 ack 40 ------- 2 5.0 1.0 0 10
- 5.701001 2 1 ack 40 ------- 2 5.0 1.0 0 10
r 6.140026 3 4 tcp 1040 ------- 1 0.0 4.0 3 11
+ 6.140026 4 3 ack 40 ------- 1 4.0 0.0 3 16
- 6.140026 4 3 ack 40 ------- 1 4.0 0.0 3 16
r 6.140035 3 4 tcp 1040 ------- 1 0.0 4.0 4 12
+ 6.140035 4 3 ack 40 ------- 1 4.0 0.0 4 17
- 6.140035 4 3 ack 40 ------- 1 4.0 0.0 4 17
r 6.140043 3 4 tcp 1040 ------- 1 0.0 4.0 5 13
+ 6.140043 4 3 ack 40 ------- 1 4.0 0.0 5 18
- 6.140043 4 3 ack 40 ------- 1 4.0 0.0 5 18
r 6.140051 3 4 tcp 1040 ------- 1 0.0 4.0 6 14
+ 6.140051 4 3 ack 40 ------- 1 4.0 0.0 6 19
- 6.140051 4 3 ack 40 ------- 1 4.0 0.0 6 19
r 6.219014 5 3 ack 40 ------- 2 5.0 1.0 1 15
+ 6.219014 3 2 ack 40 ------- 2 5.0 1.0 1 15
- 6.219014 3 2 ack 40 ------- 2 5.0 1.0 1 15
r 6.269014 3 2 ack 40 ------- 2 5.0 1.0 1 15
+ 6.269014 2 1 ack 40 ------- 2 5.0 1.0 1 15
- 6.269014 2 1 ack 40 ------- 2 5.0 1.0 1 15
r 6.568001 2 1 ack 40 ------- 2 5.0 1.0 0 10
+ 6.568001 1 2 tcp 1040 ------- 2 1.0 5.0 2 20
- 6.568001 1 2 tcp 1040 ------- 2 1.0 5.0 2 20
6.56800  1  0  5  0  maxseq_ 2
r 6.729026 4 3 ack 40 ------- 1 4.0 0.0 3 16
+ 6.729026 3 2 ack 40 ------- 1 4.0 0.0 3 16
- 6.729026 3 2 ack 40 ------- 1 4.0 0.0 3 16
r 6.729035 4 3 ack 40 ------- 1 4.0 0.0 4 17
+ 6.729035 3 2 ack 40 ------- 1 4.0 0.0 4 17
- 6.729035 3 2 ack 40 ------- 1 4.0 0.0 4 17
r 6.729043 4 3 ack 40 ------- 1 4.0 0.0 5 18
+ 6.729043 3 2 ack 40 ------- 1 4.0 0.0 5 18
- 6.729043 3 2 ack 40 ------- 1 4.0 0.0 5 18
r 6.729051 4 3 ack 40 ------- 1 4.0 0.0 6 19
+ 6.729051 3 2 ack 40 ------- 1 4.0 0.0 6 19
- 6.729051 3 2 ack 40 ------- 1 4.0 0.0 6 19
r 6.779027 3 2 ack 40 ------- 1 4.0 0.0 3 16
+ 6.779027 2 0 ack 40 ------- 1 4.0 0.0 3 16
- 6.779027 2 0 ack 40 ------- 1 4.0 0.0 3 16
r 6.779035 3 2 ack 40 ------- 1 4.0 0.0 4 17
+ 6.779035 2 0 ack 40 ------- 1 4.0 0.0 4 17
- 6.779035 2 0 ack 40 ------- 1 4.0 0.0 4 17
r 6.779043 3 2 ack 40 ------- 1 4.0 0.0 5 18
+ 6.779043 2 0 ack 40 ------- 1 4.0 0.0 5 18
- 6.779043 2 0 ack 40 ------- 1 4.0 0.0 5 18
r 6.779052 3 2 ack 40 ------- 1 4.0 0.0 6 19
+ 6.779052 2 0 ack 40 ------- 1 4.0 0.0 6 19
- 6.779052 2 0 ack 40 ------- 1 4.0 0.0 6 19
r 7.136014 2 1 ack 40 ------- 2 5.0 1.0 1 15
7.13601  1  0  5  0  ack_ 1
7.13601  1  0  5  0  rtt_ 3.570 
7.13601  1  0  5  0  cwnd_ 2.000 
+ 7.136014 1 2 tcp 1040 ------- 2 1.0 5.0 3 21
- 7.136014 1 2 tcp 1040 ------- 2 1.0 5.0 3 21
7.13601  1  0  5  0  maxseq_ 3
r 7.368027 2 0 ack 40 ------- 1 4.0 0.0 3 16
7.36803  0  0  4  0  ack_ 3
7.36803  0  0  4  0  rtt_ 2.460 
7.36803  0  0  4  0  cwnd_ 5.000 
+ 7.368027 0 2 tcp 1040 ------- 1 0.0 4.0 7 22
- 7.368027 0 2 tcp 1040 ------- 1 0.0 4.0 7 22
7.36803  0  0  4  0  maxseq_ 7
+ 7.368027 0 2 tcp 1040 ------- 1 0.0 4.0 8 23
7.36803  0  0  4  0  maxseq_ 8
- 7.368029 0 2 tcp 1040 ------- 1 0.0 4.0 8 23
r 7.368035 2 0 ack 40 ------- 1 4.0 0.0 4 17
7.36804  0  0  4  0  ack_ 4
7.36804  0  0  4  0  cwnd_ 6.000 
+ 7.368035 0 2 tcp 1040 ------- 1 0.0 4.0 9 24
- 7.368035 0 2 tcp 1040 ------- 1 0.0 4.0 9 24
7.36804  0  0  4  0  maxseq_ 9
+ 7.368035 0 2 tcp 1040 ------- 1 0.0 4.0 10 25
7.36804  0  0  4  0  maxseq_ 10
- 7.368037 0 2 tcp 1040 ------- 1 0.0 4.0 10 25
r 7.368044 2 0 ack 40 ------- 1 4.0 0.0 5 18
7.36804  0  0  4  0  ack_ 5
7.36804  0  0  4  0  cwnd_ 7.000 
+ 7.368044 0 2 tcp 1040 ------- 1 0.0 4.0 11 26
- 7.368044 0 2 tcp 1040 ------- 1 0.0 4.0 11 26
7.36804  0  0  4  0  maxseq_ 11
+ 7.368044 0 2 tcp 1040 ------- 1 0.0 4.0 12 27
7.36804  0  0  4  0  maxseq_ 12
- 7.368046 0 2 tcp 1040 ------- 1 0.0 4.0 12 27
r 7.368052 2 0 ack 40 ------- 1 4.0 0.0 6 19
7.36805  0  0  4  0  ack_ 6
7.36805  0  0  4  0  cwnd_ 8.000 
+ 7.368052 0 2 tcp 1040 ------- 1 0.0 4.0 13 28
- 7.368052 0 2 tcp 1040 ------- 1 0.0 4.0 13 28
7.36805  0  0  4  0  maxseq_ 13
+ 7.368052 0 2 tcp 1040 ------- 1 0.0 4.0 14 29
7.36805  0  0  4  0  maxseq_ 14
- 7.368054 0 2 tcp 1040 ------- 1 0.0 4.0 14 29
r 7.435003 1 2 tcp 1040 ------- 2 1.0 5.0 2 20
+ 7.435003 2 3 tcp 1040 ------- 2 1.0 5.0 2 20
- 7.435003 2 3 tcp 1040 ------- 2 1.0 5.0 2 20
r 7.485011 2 3 tcp 1040 ------- 2 1.0 5.0 2 20
+ 7.485011 3 5 tcp 1040 ------- 2 1.0 5.0 2 20
- 7.485011 3 5 tcp 1040 ------- 2 1.0 5.0 2 20
r 7.957029 0 2 tcp 1040 ------- 1 0.0 4.0 7 22
+ 7.957029 2 3 tcp 1040 ------- 1 0.0 4.0 7 22
- 7.957029 2 3 tcp 1040 ------- 1 0.0 4.0 7 22
r 7.957031 0 2 tcp 1040 ------- 1 0.0 4.0 8 23
+ 7.957031 2 3 tcp 1040 ------- 1 0.0 4.0 8 23
r 7.957037 0 2 tcp 1040 ------- 1 0.0 4.0 9 24
+ 7.957037 2 3 tcp 1040 ------- 1 0.0 4.0 9 24
- 7.957037 2 3 tcp 1040 ------- 1 0.0 4.0 8 23
r 7.957039 0 2 tcp 1040 ------- 1 0.0 4.0 10 25
+ 7.957039 2 3 tcp 1040 ------- 1 0.0 4.0 10 25
r 7.957046 0 2 tcp 1040 ------- 1 0.0 4.0 11 26
+ 7.957046 2 3 tcp 1040 ------- 1 0.0 4.0 11 26
- 7.957046 2 3 tcp 1040 ------- 1 0.0 4.0 9 24
r 7.957048 0 2 tcp 1040 ------- 1 0.0 4.0 12 27
+ 7.957048 2 3 tcp 1040 ------- 1 0.0 4.0 12 27
r 7.957054 0 2 tcp 1040 ------- 1 0.0 4.0 13 28
+ 7.957054 2 3 tcp 1040 ------- 1 0.0 4.0 13 28
- 7.957054 2 3 tcp 1040 ------- 1 0.0 4.0 10 25
r 7.957056 0 2 tcp 1040 ------- 1 0.0 4.0 14 29
+ 7.957056 2 3 tcp 1040 ------- 1 0.0 4.0 14 29
- 7.957062 2 3 tcp 1040 ------- 1 0.0 4.0 11 26
- 7.957071 2 3 tcp 1040 ------- 1 0.0 4.0 12 27
- 7.957079 2 3 tcp 1040 ------- 1 0.0 4.0 13 28
- 7.957087 2 3 tcp 1040 ------- 1 0.0 4.0 14 29
r 8.003016 1 2 tcp 1040 ------- 2 1.0 5.0 3 21
+ 8.003016 2 3 tcp 1040 ------- 2 1.0 5.0 3 21
- 8.003016 2 3 tcp 1040 ------- 2 1.0 5.0 3 21
r 8.007037 2 3 tcp 1040 ------- 1 0.0 4.0 7 22
+ 8.007037 3 4 tcp 1040 ------- 1 0.0 4.0 7 22
- 8.007037 3 4 tcp 1040 ------- 1 0.0 4.0 7 22
r 8.007046 2 3 tcp 1040 ------- 1 0.0 4.0 8 23
+ 8.007046 3 4 tcp 1040 ------- 1 0.0 4.0 8 23
- 8.007046 3 4 tcp 1040 ------- 1 0.0 4.0 8 23
r 8.007054 2 3 tcp 1040 ------- 1 0.0 4.0 9 24
+ 8.007054 3 4 tcp 1040 ------- 1 0.0 4.0 9 24
- 8.007054 3 4 tcp 1040 ------- 1 0.0 4.0 9 24
r 8.007062 2 3 tcp 1040 ------- 1 0.0 4.0 10 25
+ 8.007062 3 4 tcp 1040 ------- 1 0.0 4.0 10 25
- 8.007062 3 4 tcp 1040 ------- 1 0.0 4.0 10 25
r 8.007071 2 3 tcp 1040 ------- 1 0.0 4.0 11 26
+ 8.007071 3 4 tcp 1040 ------- 1 0.0 4.0 11 26
- 8.007071 3 4 tcp 1040 ------- 1 0.0 4.0 11 26
r 8.007079 2 3 tcp 1040 ------- 1 0.0 4.0 12 27
+ 8.007079 3 4 tcp 1040 ------- 1 0.0 4.0 12 27
- 8.007079 3 4 tcp 1040 ------- 1 0.0 4.0 12 27
r 8.007087 2 3 tcp 1040 ------- 1 0.0 4.0 13 28
+ 8.007087 3 4 tcp 1040 ------- 1 0.0 4.0 13 28
- 8.007087 3 4 tcp 1040 ------- 1 0.0 4.0 13 28
r 8.007096 2 3 tcp 1040 ------- 1 0.0 4.0 14 29
+ 8.007096 3 4 tcp 1040 ------- 1 0.0 4.0 14 29
- 8.007096 3 4 tcp 1040 ------- 1 0.0 4.0 14 29
r 8.053024 2 3 tcp 1040 ------- 2 1.0 5.0 3 21
+ 8.053024 3 5 tcp 1040 ------- 2 1.0 5.0 3 21
- 8.053024 3 5 tcp 1040 ------- 2 1.0 5.0 3 21
r 8.352013 3 5 tcp 1040 ------- 2 1.0 5.0 2 20
+ 8.352013 5 3 ack 40 ------- 2 5.0 1.0 2 30
- 8.352013 5 3 ack 40 ------- 2 5.0 1.0 2 30
r 8.596039 3 4 tcp 1040 ------- 1 0.0 4.0 7 22
+ 8.596039 4 3 ack 40 ------- 1 4.0 0.0 7 31
- 8.596039 4 3 ack 40 ------- 1 4.0 0.0 7 31
r 8.596048 3 4 tcp 1040 ------- 1 0.0 4.0 8 23
+ 8.596048 4 3 ack 40 ------- 1 4.0 0.0 8 32
- 8.596048 4 3 ack 40 ------- 1 4.0 0.0 8 32
r 8.596056 3 4 tcp 1040 ------- 1 0.0 4.0 9 24
+ 8.596056 4 3 ack 40 ------- 1 4.0 0.0 9 33
- 8.596056 4 3 ack 40 ------- 1 4.0 0.0 9 33
r 8.596064 3 4 tcp 1040 ------- 1 0.0 4.0 10 25
+ 8.596064 4 3 ack 40 ------- 1 4.0 0.0 10 34
- 8.596064 4 3 ack 40 ------- 1 4.0 0.0 10 34
r 8.596073 3 4 tcp 1040 ------- 1 0.0 4.0 11 26
+ 8.596073 4 3 ack 40 ------- 1 4.0 0.0 11 35
- 8.596073 4 3 ack 40 ------- 1 4.0 0.0 11 35
r 8.596081 3 4 tcp 1040 ------- 1 0.0 4.0 12 27
+ 8.596081 4 3 ack 40 ------- 1 4.0 0.0 12 36
- 8.596081 4 3 ack 40 ------- 1 4.0 0.0 12 36
r 8.596089 3 4 tcp 1040 ------- 1 0.0 4.0 13 28
+ 8.596089 4 3 ack 40 ------- 1 4.0 0.0 13 37
- 8.596089 4 3 ack 40 ------- 1 4.0 0.0 13 37
r 8.596098 3 4 tcp 1040 ------- 1 0.0 4.0 14 29
+ 8.596098 4 3 ack 40 ------- 1 4.0 0.0 14 38
- 8.596098 4 3 ack 40 ------- 1 4.0 0.0 14 38
r 8.920026 3 5 tcp 1040 ------- 2 1.0 5.0 3 21
+ 8.920026 5 3 ack 40 ------- 2 5.0 1.0 3 39
- 8.920026 5 3 ack 40 ------- 2 5.0 1.0 3 39
r 9.185039 4 3 ack 40 ------- 1 4.0 0.0 7 31
+ 9.185039 3 2 ack 40 ------- 1 4.0 0.0 7 31
- 9.185039 3 2 ack 40 ------- 1 4.0 0.0 7 31
r 9.185048 4 3 ack 40 ------- 1 4.0 0.0 8 32
+ 9.185048 3 2 ack 40 ------- 1 4.0 0.0 8 32
- 9.185048 3 2 ack 40 ------- 1 4.0 0.0 8 32
r 9.185056 4 3 ack 40 ------- 1 4.0 0.0 9 33
+ 9.185056 3 2 ack 40 ------- 1 4.0 0.0 9 33
- 9.185056 3 2 ack 40 ------- 1 4.0 0.0 9 33
r 9.185064 4 3 ack 40 ------- 1 4.0 0.0 10 34
+ 9.185064 3 2 ack 40 ------- 1 4.0 0.0 10 34
- 9.185064 3 2 ack 40 ------- 1 4.0 0.0 10 34
r 9.185073 4 3 ack 40 ------- 1 4.0 0.0 11 35
+ 9.185073 3 2 ack 40 ------- 1 4.0 0.0 11 35
- 9.185073 3 2 ack 40 ------- 1 4.0 0.0 11 35
r 9.185081 4 3 ack 40 ------- 1 4.0 0.0 12 36
+ 9.185081 3 2 ack 40 ------- 1 4.0 0.0 12 36
- 9.185081 3 2 ack 40 ------- 1 4.0 0.0 12 36
r 9.185089 4 3 ack 40 ------- 1 4.0 0.0 13 37
+ 9.185089 3 2 ack 40 ------- 1 4.0 0.0 13 37
- 9.185089 3 2 ack 40 ------- 1 4.0 0.0 13 37
r 9.185098 4 3 ack 40 ------- 1 4.0 0.0 14 38
+ 9.185098 3 2 ack 40 ------- 1 4.0 0.0 14 38
- 9.185098 3 2 ack 40 ------- 1 4.0 0.0 14 38
r 9.219014 5 3 ack 40 ------- 2 5.0 1.0 2 30
+ 9.219014 3 2 ack 40 ------- 2 5.0 1.0 2 30
- 9.219014 3 2 ack 40 ------- 2 5.0 1.0 2 30
r 9.23504 3 2 ack 40 ------- 1 4.0 0.0 7 31
+ 9.23504 2 0 ack 40 ------- 1 4.0 0.0 7 31
- 9.23504 2 0 ack 40 ------- 1 4.0 0.0 7 31
r 9.235048 3 2 ack 40 ------- 1 4.0 0.0 8 32
+ 9.235048 2 0 ack 40 ------- 1 4.0 0.0 8 32
- 9.235048 2 0 ack 40 ------- 1 4.0 0.0 8 32
r 9.235056 3 2 ack 40 ------- 1 4.0 0.0 9 33
+ 9.235056 2 0 ack 40 ------- 1 4.0 0.0 9 33
- 9.235056 2 0 ack 40 ------- 1 4.0 0.0 9 33
r 9.235065 3 2 ack 40 ------- 1 4.0 0.0 10 34
+ 9.235065 2 0 ack 40 ------- 1 4.0 0.0 10 34
- 9.235065 2 0 ack 40 ------- 1 4.0 0.0 10 34
r 9.235073 3 2 ack 40 ------- 1 4.0 0.0 11 35
+ 9.235073 2 0 ack 40 ------- 1 4.0 0.0 11 35
- 9.235073 2 0 ack 40 ------- 1 4.0 0.0 11 35
r 9.235081 3 2 ack 40 ------- 1 4.0 0.0 12 36
+ 9.235081 2 0 ack 40 ------- 1 4.0 0.0 12 36
- 9.235081 2 0 ack 40 ------- 1 4.0 0.0 12 36
r 9.23509 3 2 ack 40 ------- 1 4.0 0.0 13 37
+ 9.23509 2 0 ack 40 ------- 1 4.0 0.0 13 37
- 9.23509 2 0 ack 40 ------- 1 4.0 0.0 13 37
r 9.235098 3 2 ack 40 ------- 1 4.0 0.0 14 38
+ 9.235098 2 0 ack 40 ------- 1 4.0 0.0 14 38
- 9.235098 2 0 ack 40 ------- 1 4.0 0.0 14 38
r 9.269014 3 2 ack 40 ------- 2 5.0 1.0 2 30
+ 9.269014 2 1 ack 40 ------- 2 5.0 1.0 2 30
- 9.269014 2 1 ack 40 ------- 2 5.0 1.0 2 30
r 9.787026 5 3 ack 40 ------- 2 5.0 1.0 3 39
+ 9.787026 3 2 ack 40 ------- 2 5.0 1.0 3 39
- 9.787026 3 2 ack 40 ------- 2 5.0 1.0 3 39
r 9.82404 2 0 ack 40 ------- 1 4.0 0.0 7 31
9.82404  0  0  4  0  ack_ 7
9.82404  0  0  4  0  rtt_ 2.450 
9.82404  0  0  4  0  cwnd_ 9.000 
+ 9.82404 0 2 tcp 1040 ------- 1 0.0 4.0 15 40
- 9.82404 0 2 tcp 1040 ------- 1 0.0 4.0 15 40
9.82404  0  0  4  0  maxseq_ 15
+ 9.82404 0 2 tcp 1040 ------- 1 0.0 4.0 16 41
9.82404  0  0  4  0  maxseq_ 16
- 9.824042 0 2 tcp 1040 ------- 1 0.0 4.0 16 41
r 9.824048 2 0 ack 40 ------- 1 4.0 0.0 8 32
9.82405  0  0  4  0  ack_ 8
9.82405  0  0  4  0  cwnd_ 10.000
+ 9.824048 0 2 tcp 1040 ------- 1 0.0 4.0 17 42
- 9.824048 0 2 tcp 1040 ------- 1 0.0 4.0 17 42
9.82405  0  0  4  0  maxseq_ 17
+ 9.824048 0 2 tcp 1040 ------- 1 0.0 4.0 18 43
9.82405  0  0  4  0  maxseq_ 18
- 9.82405 0 2 tcp 1040 ------- 1 0.0 4.0 18 43
r 9.824056 2 0 ack 40 ------- 1 4.0 0.0 9 33
9.82406  0  0  4  0  ack_ 9
9.82406  0  0  4  0  cwnd_ 11.000
+ 9.824056 0 2 tcp 1040 ------- 1 0.0 4.0 19 44
- 9.824056 0 2 tcp 1040 ------- 1 0.0 4.0 19 44
9.82406  0  0  4  0  maxseq_ 19
+ 9.824056 0 2 tcp 1040 ------- 1 0.0 4.0 20 45
9.82406  0  0  4  0  maxseq_ 20
- 9.824059 0 2 tcp 1040 ------- 1 0.0 4.0 20 45
r 9.824065 2 0 ack 40 ------- 1 4.0 0.0 10 34
9.82406  0  0  4  0  ack_ 10
9.82406  0  0  4  0  cwnd_ 12.000
+ 9.824065 0 2 tcp 1040 ------- 1 0.0 4.0 21 46
- 9.824065 0 2 tcp 1040 ------- 1 0.0 4.0 21 46
9.82406  0  0  4  0  maxseq_ 21
+ 9.824065 0 2 tcp 1040 ------- 1 0.0 4.0 22 47
9.82406  0  0  4  0  maxseq_ 22
- 9.824067 0 2 tcp 1040 ------- 1 0.0 4.0 22 47
r 9.824073 2 0 ack 40 ------- 1 4.0 0.0 11 35
9.82407  0  0  4  0  ack_ 11
9.82407  0  0  4  0  cwnd_ 13.000
+ 9.824073 0 2 tcp 1040 ------- 1 0.0 4.0 23 48
- 9.824073 0 2 tcp 1040 ------- 1 0.0 4.0 23 48
9.82407  0  0  4  0  maxseq_ 23
+ 9.824073 0 2 tcp 1040 ------- 1 0.0 4.0 24 49
9.82407  0  0  4  0  maxseq_ 24
- 9.824075 0 2 tcp 1040 ------- 1 0.0 4.0 24 49
r 9.824081 2 0 ack 40 ------- 1 4.0 0.0 12 36
9.82408  0  0  4  0  ack_ 12
9.82408  0  0  4  0  cwnd_ 14.000
+ 9.824081 0 2 tcp 1040 ------- 1 0.0 4.0 25 50
- 9.824081 0 2 tcp 1040 ------- 1 0.0 4.0 25 50
9.82408  0  0  4  0  maxseq_ 25
+ 9.824081 0 2 tcp 1040 ------- 1 0.0 4.0 26 51
9.82408  0  0  4  0  maxseq_ 26
- 9.824084 0 2 tcp 1040 ------- 1 0.0 4.0 26 51
r 9.82409 2 0 ack 40 ------- 1 4.0 0.0 13 37
9.82409  0  0  4  0  ack_ 13
9.82409  0  0  4  0  cwnd_ 15.000
+ 9.82409 0 2 tcp 1040 ------- 1 0.0 4.0 27 52
- 9.82409 0 2 tcp 1040 ------- 1 0.0 4.0 27 52
9.82409  0  0  4  0  maxseq_ 27
+ 9.82409 0 2 tcp 1040 ------- 1 0.0 4.0 28 53
9.82409  0  0  4  0  maxseq_ 28
- 9.824092 0 2 tcp 1040 ------- 1 0.0 4.0 28 53
r 9.824098 2 0 ack 40 ------- 1 4.0 0.0 14 38
9.82410  0  0  4  0  ack_ 14
9.82410  0  0  4  0  cwnd_ 16.000
+ 9.824098 0 2 tcp 1040 ------- 1 0.0 4.0 29 54
- 9.824098 0 2 tcp 1040 ------- 1 0.0 4.0 29 54
9.82410  0  0  4  0  maxseq_ 29
+ 9.824098 0 2 tcp 1040 ------- 1 0.0 4.0 30 55
9.82410  0  0  4  0  maxseq_ 30
- 9.8241 0 2 tcp 1040 ------- 1 0.0 4.0 30 55
r 9.837027 3 2 ack 40 ------- 2 5.0 1.0 3 39
+ 9.837027 2 1 ack 40 ------- 2 5.0 1.0 3 39
- 9.837027 2 1 ack 40 ------- 2 5.0 1.0 3 39
r 10.136014 2 1 ack 40 ------- 2 5.0 1.0 2 30
10.13601 1  0  5  0  ack_ 2
10.13601 1  0  5  0  cwnd_ 2.500 
+ 10.136014 1 2 tcp 1040 ------- 2 1.0 5.0 4 56
- 10.136014 1 2 tcp 1040 ------- 2 1.0 5.0 4 56
10.13601 1  0  5  0  maxseq_ 4
r 10.413042 0 2 tcp 1040 ------- 1 0.0 4.0 15 40
+ 10.413042 2 3 tcp 1040 ------- 1 0.0 4.0 15 40
- 10.413042 2 3 tcp 1040 ------- 1 0.0 4.0 15 40
r 10.413044 0 2 tcp 1040 ------- 1 0.0 4.0 16 41
+ 10.413044 2 3 tcp 1040 ------- 1 0.0 4.0 16 41
r 10.41305 0 2 tcp 1040 ------- 1 0.0 4.0 17 42
+ 10.41305 2 3 tcp 1040 ------- 1 0.0 4.0 17 42
- 10.41305 2 3 tcp 1040 ------- 1 0.0 4.0 16 41
r 10.413052 0 2 tcp 1040 ------- 1 0.0 4.0 18 43
+ 10.413052 2 3 tcp 1040 ------- 1 0.0 4.0 18 43
- 10.413059 2 3 tcp 1040 ------- 1 0.0 4.0 17 42
r 10.413059 0 2 tcp 1040 ------- 1 0.0 4.0 19 44
+ 10.413059 2 3 tcp 1040 ------- 1 0.0 4.0 19 44
r 10.413061 0 2 tcp 1040 ------- 1 0.0 4.0 20 45
+ 10.413061 2 3 tcp 1040 ------- 1 0.0 4.0 20 45
- 10.413067 2 3 tcp 1040 ------- 1 0.0 4.0 18 43
r 10.413067 0 2 tcp 1040 ------- 1 0.0 4.0 21 46
+ 10.413067 2 3 tcp 1040 ------- 1 0.0 4.0 21 46
r 10.413069 0 2 tcp 1040 ------- 1 0.0 4.0 22 47
+ 10.413069 2 3 tcp 1040 ------- 1 0.0 4.0 22 47
- 10.413075 2 3 tcp 1040 ------- 1 0.0 4.0 19 44
r 10.413075 0 2 tcp 1040 ------- 1 0.0 4.0 23 48
+ 10.413075 2 3 tcp 1040 ------- 1 0.0 4.0 23 48
r 10.413077 0 2 tcp 1040 ------- 1 0.0 4.0 24 49
+ 10.413077 2 3 tcp 1040 ------- 1 0.0 4.0 24 49
- 10.413084 2 3 tcp 1040 ------- 1 0.0 4.0 20 45
r 10.413084 0 2 tcp 1040 ------- 1 0.0 4.0 25 50
+ 10.413084 2 3 tcp 1040 ------- 1 0.0 4.0 25 50
r 10.413086 0 2 tcp 1040 ------- 1 0.0 4.0 26 51
+ 10.413086 2 3 tcp 1040 ------- 1 0.0 4.0 26 51
- 10.413092 2 3 tcp 1040 ------- 1 0.0 4.0 21 46
r 10.413092 0 2 tcp 1040 ------- 1 0.0 4.0 27 52
+ 10.413092 2 3 tcp 1040 ------- 1 0.0 4.0 27 52
r 10.413094 0 2 tcp 1040 ------- 1 0.0 4.0 28 53
+ 10.413094 2 3 tcp 1040 ------- 1 0.0 4.0 28 53
- 10.4131 2 3 tcp 1040 ------- 1 0.0 4.0 22 47
r 10.4131 0 2 tcp 1040 ------- 1 0.0 4.0 29 54
+ 10.4131 2 3 tcp 1040 ------- 1 0.0 4.0 29 54
r 10.413102 0 2 tcp 1040 ------- 1 0.0 4.0 30 55
+ 10.413102 2 3 tcp 1040 ------- 1 0.0 4.0 30 55
- 10.413108 2 3 tcp 1040 ------- 1 0.0 4.0 23 48
- 10.413117 2 3 tcp 1040 ------- 1 0.0 4.0 24 49
- 10.413125 2 3 tcp 1040 ------- 1 0.0 4.0 25 50
- 10.413133 2 3 tcp 1040 ------- 1 0.0 4.0 26 51
- 10.413142 2 3 tcp 1040 ------- 1 0.0 4.0 27 52
- 10.41315 2 3 tcp 1040 ------- 1 0.0 4.0 28 53
- 10.413158 2 3 tcp 1040 ------- 1 0.0 4.0 29 54
- 10.413167 2 3 tcp 1040 ------- 1 0.0 4.0 30 55
r 10.46305 2 3 tcp 1040 ------- 1 0.0 4.0 15 40
+ 10.46305 3 4 tcp 1040 ------- 1 0.0 4.0 15 40
- 10.46305 3 4 tcp 1040 ------- 1 0.0 4.0 15 40
r 10.463059 2 3 tcp 1040 ------- 1 0.0 4.0 16 41
+ 10.463059 3 4 tcp 1040 ------- 1 0.0 4.0 16 41
- 10.463059 3 4 tcp 1040 ------- 1 0.0 4.0 16 41
r 10.463067 2 3 tcp 1040 ------- 1 0.0 4.0 17 42
+ 10.463067 3 4 tcp 1040 ------- 1 0.0 4.0 17 42
- 10.463067 3 4 tcp 1040 ------- 1 0.0 4.0 17 42
r 10.463075 2 3 tcp 1040 ------- 1 0.0 4.0 18 43
+ 10.463075 3 4 tcp 1040 ------- 1 0.0 4.0 18 43
- 10.463075 3 4 tcp 1040 ------- 1 0.0 4.0 18 43
r 10.463084 2 3 tcp 1040 ------- 1 0.0 4.0 19 44
+ 10.463084 3 4 tcp 1040 ------- 1 0.0 4.0 19 44
- 10.463084 3 4 tcp 1040 ------- 1 0.0 4.0 19 44
r 10.463092 2 3 tcp 1040 ------- 1 0.0 4.0 20 45
+ 10.463092 3 4 tcp 1040 ------- 1 0.0 4.0 20 45
- 10.463092 3 4 tcp 1040 ------- 1 0.0 4.0 20 45
r 10.4631 2 3 tcp 1040 ------- 1 0.0 4.0 21 46
+ 10.4631 3 4 tcp 1040 ------- 1 0.0 4.0 21 46
- 10.4631 3 4 tcp 1040 ------- 1 0.0 4.0 21 46
r 10.463108 2 3 tcp 1040 ------- 1 0.0 4.0 22 47
+ 10.463108 3 4 tcp 1040 ------- 1 0.0 4.0 22 47
- 10.463108 3 4 tcp 1040 ------- 1 0.0 4.0 22 47
r 10.463117 2 3 tcp 1040 ------- 1 0.0 4.0 23 48
+ 10.463117 3 4 tcp 1040 ------- 1 0.0 4.0 23 48
- 10.463117 3 4 tcp 1040 ------- 1 0.0 4.0 23 48
r 10.463125 2 3 tcp 1040 ------- 1 0.0 4.0 24 49
+ 10.463125 3 4 tcp 1040 ------- 1 0.0 4.0 24 49
- 10.463125 3 4 tcp 1040 ------- 1 0.0 4.0 24 49
r 10.463133 2 3 tcp 1040 ------- 1 0.0 4.0 25 50
+ 10.463133 3 4 tcp 1040 ------- 1 0.0 4.0 25 50
- 10.463133 3 4 tcp 1040 ------- 1 0.0 4.0 25 50
r 10.463142 2 3 tcp 1040 ------- 1 0.0 4.0 26 51
+ 10.463142 3 4 tcp 1040 ------- 1 0.0 4.0 26 51
- 10.463142 3 4 tcp 1040 ------- 1 0.0 4.0 26 51
r 10.46315 2 3 tcp 1040 ------- 1 0.0 4.0 27 52
+ 10.46315 3 4 tcp 1040 ------- 1 0.0 4.0 27 52
- 10.46315 3 4 tcp 1040 ------- 1 0.0 4.0 27 52
r 10.463158 2 3 tcp 1040 ------- 1 0.0 4.0 28 53
+ 10.463158 3 4 tcp 1040 ------- 1 0.0 4.0 28 53
- 10.463158 3 4 tcp 1040 ------- 1 0.0 4.0 28 53
r 10.463167 2 3 tcp 1040 ------- 1 0.0 4.0 29 54
+ 10.463167 3 4 tcp 1040 ------- 1 0.0 4.0 29 54
- 10.463167 3 4 tcp 1040 ------- 1 0.0 4.0 29 54
r 10.463175 2 3 tcp 1040 ------- 1 0.0 4.0 30 55
+ 10.463175 3 4 tcp 1040 ------- 1 0.0 4.0 30 55
- 10.463175 3 4 tcp 1040 ------- 1 0.0 4.0 30 55
r 10.704027 2 1 ack 40 ------- 2 5.0 1.0 3 39
10.70403 1  0  5  0  ack_ 3
10.70403 1  0  5  0  cwnd_ 2.900 
+ 10.704027 1 2 tcp 1040 ------- 2 1.0 5.0 5 57
- 10.704027 1 2 tcp 1040 ------- 2 1.0 5.0 5 57
10.70403 1  0  5  0  maxseq_ 5
r 11.003016 1 2 tcp 1040 ------- 2 1.0 5.0 4 56
+ 11.003016 2 3 tcp 1040 ------- 2 1.0 5.0 4 56
- 11.003016 2 3 tcp 1040 ------- 2 1.0 5.0 4 56
r 11.052052 3 4 tcp 1040 ------- 1 0.0 4.0 15 40
+ 11.052052 4 3 ack 40 ------- 1 4.0 0.0 15 58
- 11.052052 4 3 ack 40 ------- 1 4.0 0.0 15 58
r 11.052061 3 4 tcp 1040 ------- 1 0.0 4.0 16 41
+ 11.052061 4 3 ack 40 ------- 1 4.0 0.0 16 59
- 11.052061 4 3 ack 40 ------- 1 4.0 0.0 16 59
r 11.052069 3 4 tcp 1040 ------- 1 0.0 4.0 17 42
+ 11.052069 4 3 ack 40 ------- 1 4.0 0.0 17 60
- 11.052069 4 3 ack 40 ------- 1 4.0 0.0 17 60
r 11.052077 3 4 tcp 1040 ------- 1 0.0 4.0 18 43
+ 11.052077 4 3 ack 40 ------- 1 4.0 0.0 18 61
- 11.052077 4 3 ack 40 ------- 1 4.0 0.0 18 61
r 11.052086 3 4 tcp 1040 ------- 1 0.0 4.0 19 44
+ 11.052086 4 3 ack 40 ------- 1 4.0 0.0 19 62
- 11.052086 4 3 ack 40 ------- 1 4.0 0.0 19 62
r 11.052094 3 4 tcp 1040 ------- 1 0.0 4.0 20 45
+ 11.052094 4 3 ack 40 ------- 1 4.0 0.0 20 63
- 11.052094 4 3 ack 40 ------- 1 4.0 0.0 20 63
r 11.052102 3 4 tcp 1040 ------- 1 0.0 4.0 21 46
+ 11.052102 4 3 ack 40 ------- 1 4.0 0.0 21 64
- 11.052102 4 3 ack 40 ------- 1 4.0 0.0 21 64
r 11.052111 3 4 tcp 1040 ------- 1 0.0 4.0 22 47
+ 11.052111 4 3 ack 40 ------- 1 4.0 0.0 22 65
- 11.052111 4 3 ack 40 ------- 1 4.0 0.0 22 65
r 11.052119 3 4 tcp 1040 ------- 1 0.0 4.0 23 48
+ 11.052119 4 3 ack 40 ------- 1 4.0 0.0 23 66
- 11.052119 4 3 ack 40 ------- 1 4.0 0.0 23 66
r 11.052127 3 4 tcp 1040 ------- 1 0.0 4.0 24 49
+ 11.052127 4 3 ack 40 ------- 1 4.0 0.0 24 67
- 11.052127 4 3 ack 40 ------- 1 4.0 0.0 24 67
r 11.052136 3 4 tcp 1040 ------- 1 0.0 4.0 25 50
+ 11.052136 4 3 ack 40 ------- 1 4.0 0.0 25 68
- 11.052136 4 3 ack 40 ------- 1 4.0 0.0 25 68
r 11.052144 3 4 tcp 1040 ------- 1 0.0 4.0 26 51
+ 11.052144 4 3 ack 40 ------- 1 4.0 0.0 26 69
- 11.052144 4 3 ack 40 ------- 1 4.0 0.0 26 69
r 11.052152 3 4 tcp 1040 ------- 1 0.0 4.0 27 52
+ 11.052152 4 3 ack 40 ------- 1 4.0 0.0 27 70
- 11.052152 4 3 ack 40 ------- 1 4.0 0.0 27 70
r 11.05216 3 4 tcp 1040 ------- 1 0.0 4.0 28 53
+ 11.05216 4 3 ack 40 ------- 1 4.0 0.0 28 71
- 11.05216 4 3 ack 40 ------- 1 4.0 0.0 28 71
r 11.052169 3 4 tcp 1040 ------- 1 0.0 4.0 29 54
+ 11.052169 4 3 ack 40 ------- 1 4.0 0.0 29 72
- 11.052169 4 3 ack 40 ------- 1 4.0 0.0 29 72
r 11.052177 3 4 tcp 1040 ------- 1 0.0 4.0 30 55
+ 11.052177 4 3 ack 40 ------- 1 4.0 0.0 30 73
- 11.052177 4 3 ack 40 ------- 1 4.0 0.0 30 73
r 11.053024 2 3 tcp 1040 ------- 2 1.0 5.0 4 56
+ 11.053024 3 5 tcp 1040 ------- 2 1.0 5.0 4 56
- 11.053024 3 5 tcp 1040 ------- 2 1.0 5.0 4 56
r 11.571029 1 2 tcp 1040 ------- 2 1.0 5.0 5 57
+ 11.571029 2 3 tcp 1040 ------- 2 1.0 5.0 5 57
- 11.571029 2 3 tcp 1040 ------- 2 1.0 5.0 5 57
r 11.621037 2 3 tcp 1040 ------- 2 1.0 5.0 5 57
+ 11.621037 3 5 tcp 1040 ------- 2 1.0 5.0 5 57
- 11.621037 3 5 tcp 1040 ------- 2 1.0 5.0 5 57
r 11.641052 4 3 ack 40 ------- 1 4.0 0.0 15 58
+ 11.641052 3 2 ack 40 ------- 1 4.0 0.0 15 58
- 11.641052 3 2 ack 40 ------- 1 4.0 0.0 15 58
r 11.641061 4 3 ack 40 ------- 1 4.0 0.0 16 59
+ 11.641061 3 2 ack 40 ------- 1 4.0 0.0 16 59
- 11.641061 3 2 ack 40 ------- 1 4.0 0.0 16 59
r 11.641069 4 3 ack 40 ------- 1 4.0 0.0 17 60
+ 11.641069 3 2 ack 40 ------- 1 4.0 0.0 17 60
- 11.641069 3 2 ack 40 ------- 1 4.0 0.0 17 60
r 11.641077 4 3 ack 40 ------- 1 4.0 0.0 18 61
+ 11.641077 3 2 ack 40 ------- 1 4.0 0.0 18 61
- 11.641077 3 2 ack 40 ------- 1 4.0 0.0 18 61
r 11.641086 4 3 ack 40 ------- 1 4.0 0.0 19 62
+ 11.641086 3 2 ack 40 ------- 1 4.0 0.0 19 62
- 11.641086 3 2 ack 40 ------- 1 4.0 0.0 19 62
r 11.641094 4 3 ack 40 ------- 1 4.0 0.0 20 63
+ 11.641094 3 2 ack 40 ------- 1 4.0 0.0 20 63
- 11.641094 3 2 ack 40 ------- 1 4.0 0.0 20 63
r 11.641102 4 3 ack 40 ------- 1 4.0 0.0 21 64
+ 11.641102 3 2 ack 40 ------- 1 4.0 0.0 21 64
- 11.641102 3 2 ack 40 ------- 1 4.0 0.0 21 64
r 11.641111 4 3 ack 40 ------- 1 4.0 0.0 22 65
+ 11.641111 3 2 ack 40 ------- 1 4.0 0.0 22 65
- 11.641111 3 2 ack 40 ------- 1 4.0 0.0 22 65
r 11.641119 4 3 ack 40 ------- 1 4.0 0.0 23 66
+ 11.641119 3 2 ack 40 ------- 1 4.0 0.0 23 66
- 11.641119 3 2 ack 40 ------- 1 4.0 0.0 23 66
r 11.641127 4 3 ack 40 ------- 1 4.0 0.0 24 67