V -t * -v 1.0a5 -a 0
A -t * -n 1 -p 0 -o 0x7fffffff -c 30 -a 1
A -t * -h 1 -m 1073741823 -s 0
c -t * -i 1 -n Blue
c -t * -i 2 -n Red
n -t * -a 4 -s 4 -S UP -v circle -c black -i black
n -t * -a 0 -s 0 -S UP -v circle -c black -i black
n -t * -a 5 -s 5 -S UP -v circle -c black -i black
n -t * -a 1 -s 1 -S UP -v circle -c black -i black
n -t * -a 2 -s 2 -S UP -v circle -c black -i black
n -t * -a 3 -s 3 -S UP -v circle -c black -i black
l -t * -s 0 -d 2 -S UP -r 4000000000 -D 0.54500000000000004 -c black -o right-down
l -t * -s 1 -d 2 -S UP -r 4000000000 -D 0.82300000000000006 -c black -o right-up
l -t * -s 2 -d 3 -S UP -r 1000000000 -D 0.050000000000000003 -c black -o right
l -t * -s 3 -d 4 -S UP -r 4000000000 -D 0.54500000000000004 -c black -o right-up
l -t * -s 3 -d 5 -S UP -r 4000000000 -D 0.82300000000000006 -c black -o right-down
+ -t 0 -s 1 -d 2 -p tcp -e 40 -c 2 -i 0 -a 2 -x {1.0 5.0 0 ------- null}
- -t 0 -s 1 -d 2 -p tcp -e 40 -c 2 -i 0 -a 2 -x {1.0 5.0 0 ------- null}
h -t 0 -s 1 -d 2 -p tcp -e 40 -c 2 -i 0 -a 2 -x {1.0 5.0 -1 ------- null}
+ -t 0 -s 0 -d 2 -p tcp -e 40 -c 1 -i 1 -a 1 -x {0.0 4.0 0 ------- null}
- -t 0 -s 0 -d 2 -p tcp -e 40 -c 1 -i 1 -a 1 -x {0.0 4.0 0 ------- null}
h -t 0 -s 0 -d 2 -p tcp -e 40 -c 1 -i 1 -a 1 -x {0.0 4.0 -1 ------- null}
r -t 0.54500008 -s 0 -d 2 -p tcp -e 40 -c 1 -i 1 -a 1 -x {0.0 4.0 0 ------- null}
+ -t 0.54500008 -s 2 -d 3 -p tcp -e 40 -c 1 -i 1 -a 1 -x {0.0 4.0 0 ------- null}
- -t 0.54500008 -s 2 -d 3 -p tcp -e 40 -c 1 -i 1 -a 1 -x {0.0 4.0 0 ------- null}
h -t 0.54500008 -s 2 -d 3 -p tcp -e 40 -c 1 -i 1 -a 1 -x {0.0 4.0 -1 ------- null}
r -t 0.5950004 -s 2 -d 3 -p tcp -e 40 -c 1 -i 1 -a 1 -x {0.0 4.0 0 ------- null}
+ -t 0.5950004 -s 3 -d 4 -p tcp -e 40 -c 1 -i 1 -a 1 -x {0.0 4.0 0 ------- null}
- -t 0.5950004 -s 3 -d 4 -p tcp -e 40 -c 1 -i 1 -a 1 -x {0.0 4.0 0 ------- null}
h -t 0.5950004 -s 3 -d 4 -p tcp -e 40 -c 1 -i 1 -a 1 -x {0.0 4.0 -1 ------- null}
r -t 0.82300008 -s 1 -d 2 -p tcp -e 40 -c 2 -i 0 -a 2 -x {1.0 5.0 0 ------- null}
+ -t 0.82300008 -s 2 -d 3 -p tcp -e 40 -c 2 -i 0 -a 2 -x {1.0 5.0 0 ------- null}
- -t 0.82300008 -s 2 -d 3 -p tcp -e 40 -c 2 -i 0 -a 2 -x {1.0 5.0 0 ------- null}
h -t 0.82300008 -s 2 -d 3 -p tcp -e 40 -c 2 -i 0 -a 2 -x {1.0 5.0 -1 ------- null}
r -t 0.8730004 -s 2 -d 3 -p tcp -e 40 -c 2 -i 0 -a 2 -x {1.0 5.0 0 ------- null}
+ -t 0.8730004 -s 3 -d 5 -p tcp -e 40 -c 2 -i 0 -a 2 -x {1.0 5.0 0 ------- null}
- -t 0.8730004 -s 3 -d 5 -p tcp -e 40 -c 2 -i 0 -a 2 -x {1.0 5.0 0 ------- null}
h -t 0.8730004 -s 3 -d 5 -p tcp -e 40 -c 2 -i 0 -a 2 -x {1.0 5.0 -1 ------- null}
r -t 1.14000048 -s 3 -d 4 -p tcp -e 40 -c 1 -i 1 -a 1 -x {0.0 4.0 0 ------- null}
+ -t 1.14000048 -s 4 -d 3 -p ack -e 40 -c 1 -i 2 -a 1 -x {4.0 0.0 0 ------- null}
- -t 1.14000048 -s 4 -d 3 -p ack -e 40 -c 1 -i 2 -a 1 -x {4.0 0.0 0 ------- null}
h -t 1.14000048 -s 4 -d 3 -p ack -e 40 -c 1 -i 2 -a 1 -x {4.0 0.0 -1 ------- null}
r -t 1.68500056 -s 4 -d 3 -p ack -e 40 -c 1 -i 2 -a 1 -x {4.0 0.0 0 ------- null}
+ -t 1.68500056 -s 3 -d 2 -p ack -e 40 -c 1 -i 2 -a 1 -x {4.0 0.0 0 ------- null}
- -t 1.68500056 -s 3 -d 2 -p ack -e 40 -c 1 -i 2 -a 1 -x {4.0 0.0 0 ------- null}
h -t 1.68500056 -s 3 -d 2 -p ack -e 40 -c 1 -i 2 -a 1 -x {4.0 0.0 -1 ------- null}
r -t 1.69600048 -s 3 -d 5 -p tcp -e 40 -c 2 -i 0 -a 2 -x {1.0 5.0 0 ------- null}
+ -t 1.69600048 -s 5 -d 3 -p ack -e 40 -c 2 -i 3 -a 2 -x {5.0 1.0 0 ------- null}
- -t 1.69600048 -s 5 -d 3 -p ack -e 40 -c 2 -i 3 -a 2 -x {5.0 1.0 0 ------- null}
h -t 1.69600048 -s 5 -d 3 -p ack -e 40 -c 2 -i 3 -a 2 -x {5.0 1.0 -1 ------- null}
r -t 1.73500088 -s 3 -d 2 -p ack -e 40 -c 1 -i 2 -a 1 -x {4.0 0.0 0 ------- null}
+ -t 1.73500088 -s 2 -d 0 -p ack -e 40 -c 1 -i 2 -a 1 -x {4.0 0.0 0 ------- null}
- -t 1.73500088 -s 2 -d 0 -p ack -e 40 -c 1 -i 2 -a 1 -x {4.0 0.0 0 ------- null}
h -t 1.73500088 -s 2 -d 0 -p ack -e 40 -c 1 -i 2 -a 1 -x {4.0 0.0 -1 ------- null}
r -t 2.28000096 -s 2 -d 0 -p ack -e 40 -c 1 -i 2 -a 1 -x {4.0 0.0 0 ------- null}
+ -t 2.28000096 -s 0 -d 2 -p tcp -e 1040 -c 1 -i 4 -a 1 -x {0.0 4.0 1 ------- null}
- -t 2.28000096 -s 0 -d 2 -p tcp -e 1040 -c 1 -i 4 -a 1 -x {0.0 4.0 1 ------- null}
h -t 2.28000096 -s 0 -d 2 -p tcp -e 1040 -c 1 -i 4 -a 1 -x {0.0 4.0 -1 ------- null}
+ -t 2.28000096 -s 0 -d 2 -p tcp -e 1040 -c 1 -i 5 -a 1 -x {0.0 4.0 2 ------- null}
- -t 2.28000304 -s 0 -d 2 -p tcp -e 1040 -c 1 -i 5 -a 1 -x {0.0 4.0 2 ------- null}
h -t 2.28000304 -s 0 -d 2 -p tcp -e 1040 -c 1 -i 5 -a 1 -x {0.0 4.0 -1 ------- null}
r -t 2.51900056 -s 5 -d 3 -p ack -e 40 -c 2 -i 3 -a 2 -x {5.0 1.0 0 ------- null}
+ -t 2.51900056 -s 3 -d 2 -p ack -e 40 -c 2 -i 3 -a 2 -x {5.0 1.0 0 ------- null}
- -t 2.51900056 -s 3 -d 2 -p ack -e 40 -c 2 -i 3 -a 2 -x {5.0 1.0 0 ------- null}
h -t 2.51900056 -s 3 -d 2 -p ack -e 40 -c 2 -i 3 -a 2 -x {5.0 1.0 -1 ------- null}
r -t 2.56900088 -s 3 -d 2 -p ack -e 40 -c 2 -i 3 -a 2 -x {5.0 1.0 0 ------- null}
+ -t 2.56900088 -s 2 -d 1 -p ack -e 40 -c 2 -i 3 -a 2 -x {5.0 1.0 0 ------- null}
- -t 2.56900088 -s 2 -d 1 -p ack -e 40 -c 2 -i 3 -a 2 -x {5.0 1.0 0 ------- null}
h -t 2.56900088 -s 2 -d 1 -p ack -e 40 -c 2 -i 3 -a 2 -x {5.0 1.0 -1 ------- null}
r -t 2.82500304 -s 0 -d 2 -p tcp -e 1040 -c 1 -i 4 -a 1 -x {0.0 4.0 1 ------- null}
+ -t 2.82500304 -s 2 -d 3 -p tcp -e 1040 -c 1 -i 4 -a 1 -x {0.0 4.0 1 ------- null}
- -t 2.82500304 -s 2 -d 3 -p tcp -e 1040 -c 1 -i 4 -a 1 -x {0.0 4.0 1 ------- null}
h -t 2.82500304 -s 2 -d 3 -p tcp -e 1040 -c 1 -i 4 -a 1 -x {0.0 4.0 -1 ------- null}
r -t 2.82500512 -s 0 -d 2 -p tcp -e 1040 -c 1 -i 5 -a 1 -x {0.0 4.0 2 ------- null}
+ -t 2.82500512 -s 2 -d 3 -p tcp -e 1040 -c 1 -i 5 -a 1 -x {0.0 4.0 2 ------- null}
- -t 2.82501136 -s 2 -d 3 -p tcp -e 1040 -c 1 -i 5 -a 1 -x {0.0 4.0 2 ------- null}
h -t 2.82501136 -s 2 -d 3 -p tcp -e 1040 -c 1 -i 5 -a 1 -x {0.0 4.0 -1 ------- null}
r -t 2.87501136 -s 2 -d 3 -p tcp -e 1040 -c 1 -i 4 -a 1 -x {0.0 4.0 1 ------- null}
+ -t 2.87501136 -s 3 -d 4 -p tcp -e 1040 -c 1 -i 4 -a 1 -x {0.0 4.0 1 ------- null}
- -t 2.87501136 -s 3 -d 4 -p tcp -e 1040 -c 1 -i 4 -a 1 -x {0.0 4.0 1 ------- null}
h -t 2.87501136 -s 3 -d 4 -p tcp -e 1040 -c 1 -i 4 -a 1 -x {0.0 4.0 -1 ------- null}
r -t 2.87501968 -s 2 -d 3 -p tcp -e 1040 -c 1 -i 5 -a 1 -x {0.0 4.0 2 ------- null}
+ -t 2.87501968 -s 3 -d 4 -p tcp -e 1040 -c 1 -i 5 -a 1 -x {0.0 4.0 2 ------- null}
- -t 2.87501968 -s 3 -d 4 -p tcp -e 1040 -c 1 -i 5 -a 1 -x {0.0 4.0 2 ------- null}
h -t 2.87501968 -s 3 -d 4 -p tcp -e 1040 -c 1 -i 5 -a 1 -x {0.0 4.0 -1 ------- null}
+ -t 3 -s 1 -d 2 -p tcp -e 40 -c 2 -i 6 -a 2 -x {1.0 5.0 0 ---A--- null}
- -t 3 -s 1 -d 2 -p tcp -e 40 -c 2 -i 6 -a 2 -x {1.0 5.0 0 ---A--- null}
h -t 3 -s 1 -d 2 -p tcp -e 40 -c 2 -i 6 -a 2 -x {1.0 5.0 -1 ---A--- null}
r -t 3.39200096 -s 2 -d 1 -p ack -e 40 -c 2 -i 3 -a 2 -x {5.0 1.0 0 ------- null}
+ -t 3.39200096 -s 1 -d 2 -p tcp -e 1040 -c 2 -i 7 -a 2 -x {1.0 5.0 1 ------- null}
- -t 3.39200096 -s 1 -d 2 -p tcp -e 1040 -c 2 -i 7 -a 2 -x {1.0 5.0 1 ------- null}
h -t 3.39200096 -s 1 -d 2 -p tcp -e 1040 -c 2 -i 7 -a 2 -x {1.0 5.0 -1 ------- null}
r -t 3.42001344 -s 3 -d 4 -p tcp -e 1040 -c 1 -i 4 -a 1 -x {0.0 4.0 1 ------- null}
+ -t 3.42001344 -s 4 -d 3 -p ack -e 40 -c 1 -i 8 -a 1 -x {4.0 0.0 1 ------- null}
- -t 3.42001344 -s 4 -d 3 -p ack -e 40 -c 1 -i 8 -a 1 -x {4.0 0.0 1 ------- null}
h -t 3.42001344 -s 4 -d 3 -p ack -e 40 -c 1 -i 8 -a 1 -x {4.0 0.0 -1 ------- null}
r -t 3.42002176 -s 3 -d 4 -p tcp -e 1040 -c 1 -i 5 -a 1 -x {0.0 4.0 2 ------- null}
+ -t 3.42002176 -s 4 -d 3 -p ack -e 40 -c 1 -i 9 -a 1 -x {4.0 0.0 2 ------- null}
- -t 3.42002176 -s 4 -d 3 -p ack -e 40 -c 1 -i 9 -a 1 -x {4.0 0.0 2 ------- null}
h -t 3.42002176 -s 4 -d 3 -p ack -e 40 -c 1 -i 9 -a 1 -x {4.0 0.0 -1 ------- null}
r -t 3.82300008 -s 1 -d 2 -p tcp -e 40 -c 2 -i 6 -a 2 -x {1.0 5.0 0 ---A--- null}
+ -t 3.82300008 -s 2 -d 3 -p tcp -e 40 -c 2 -i 6 -a 2 -x {1.0 5.0 0 ---A--- null}
- -t 3.82300008 -s 2 -d 3 -p tcp -e 40 -c 2 -i 6 -a 2 -x {1.0 5.0 0 ---A--- null}
h -t 3.82300008 -s 2 -d 3 -p tcp -e 40 -c 2 -i 6 -a 2 -x {1.0 5.0 -1 ---A--- null}
r -t 3.8730004 -s 2 -d 3 -p tcp -e 40 -c 2 -i 6 -a 2 -x {1.0 5.0 0 ---A--- null}
+ -t 3.8730004 -s 3 -d 5 -p tcp -e 40 -c 2 -i 6 -a 2 -x {1.0 5.0 0 ---A--- null}
- -t 3.8730004 -s 3 -d 5 -p tcp -e 40 -c 2 -i 6 -a 2 -x {1.0 5.0 0 ---A--- null}
h -t 3.8730004 -s 3 -d 5 -p tcp -e 40 -c 2 -i 6 -a 2 -x {1.0 5.0 -1 ---A--- null}
r -t 3.96501352 -s 4 -d 3 -p ack -e 40 -c 1 -i 8 -a 1 -x {4.0 0.0 1 ------- null}
+ -t 3.96501352 -s 3 -d 2 -p ack -e 40 -c 1 -i 8 -a 1 -x {4.0 0.0 1 ------- null}
- -t 3.96501352 -s 3 -d 2 -p ack -e 40 -c 1 -i 8 -a 1 -x {4.0 0.0 1 ------- null}
h -t 3.96501352 -s 3 -d 2 -p ack -e 40 -c 1 -i 8 -a 1 -x {4.0 0.0 -1 ------- null}
r -t 3.96502184 -s 4 -d 3 -p ack -e 40 -c 1 -i 9 -a 1 -x {4.0 0.0 2 ------- null}
+ -t 3.96502184 -s 3 -d 2 -p ack -e 40 -c 1 -i 9 -a 1 -x {4.0 0.0 2 ------- null}
- -t 3.96502184 -s 3 -d 2 -p ack -e 40 -c 1 -i 9 -a 1 -x {4.0 0.0 2 ------- null}
h -t 3.96502184 -s 3 -d 2 -p ack -e 40 -c 1 -i 9 -a 1 -x {4.0 0.0 -1 ------- null}
r -t 4.01501384 -s 3 -d 2 -p ack -e 40 -c 1 -i 8 -a 1 -x {4.0 0.0 1 ------- null}
+ -t 4.01501384 -s 2 -d 0 -p ack -e 40 -c 1 -i 8 -a 1 -x {4.0 0.0 1 ------- null}
- -t 4.01501384 -s 2 -d 0 -p ack -e 40 -c 1 -i 8 -a 1 -x {4.0 0.0 1 ------- null}
h -t 4.01501384 -s 2 -d 0 -p ack -e 40 -c 1 -i 8 -a 1 -x {4.0 0.0 -1 ------- null}
r -t 4.01502216 -s 3 -d 2 -p ack -e 40 -c 1 -i 9 -a 1 -x {4.0 0.0 2 ------- null}
+ -t 4.01502216 -s 2 -d 0 -p ack -e 40 -c 1 -i 9 -a 1 -x {4.0 0.0 2 ------- null}
- -t 4.01502216 -s 2 -d 0 -p ack -e 40 -c 1 -i 9 -a 1 -x {4.0 0.0 2 ------- null}
h -t 4.01502216 -s 2 -d 0 -p ack -e 40 -c 1 -i 9 -a 1 -x {4.0 0.0 -1 ------- null}
r -t 4.21500304 -s 1 -d 2 -p tcp -e 1040 -c 2 -i 7 -a 2 -x {1.0 5.0 1 ------- null}
+ -t 4.21500304 -s 2 -d 3 -p tcp -e 1040 -c 2 -i 7 -a 2 -x {1.0 5.0 1 ------- null}
- -t 4.21500304 -s 2 -d 3 -p tcp -e 1040 -c 2 -i 7 -a 2 -x {1.0 5.0 1 ------- null}
h -t 4.21500304 -s 2 -d 3 -p tcp -e 1040 -c 2 -i 7 -a 2 -x {1.0 5.0 -1 ------- null}
r -t 4.26501136 -s 2 -d 3 -p tcp -e 1040 -c 2 -i 7 -a 2 -x {1.0 5.0 1 ------- null}
+ -t 4.26501136 -s 3 -d 5 -p tcp -e 1040 -c 2 -i 7 -a 2 -x {1.0 5.0 1 ------- null}
- -t 4.26501136 -s 3 -d 5 -p tcp -e 1040 -c 2 -i 7 -a 2 -x {1.0 5.0 1 ------- null}
h -t 4.26501136 -s 3 -d 5 -p tcp -e 1040 -c 2 -i 7 -a 2 -x {1.0 5.0 -1 ------- null}
r -t 4.56001392 -s 2 -d 0 -p ack -e 40 -c 1 -i 8 -a 1 -x {4.0 0.0 1 ------- null}
+ -t 4.56001392 -s 0 -d 2 -p tcp -e 1040 -c 1 -i 10 -a 1 -x {0.0 4.0 3 ------- null}
- -t 4.56001392 -s 0 -d 2 -p tcp -e 1040 -c 1 -i 10 -a 1 -x {0.0 4.0 3 ------- null}
h -t 4.56001392 -s 0 -d 2 -p tcp -e 1040 -c 1 -i 10 -a 1 -x {0.0 4.0 -1 ------- null}
+ -t 4.56001392 -s 0 -d 2 -p tcp -e 1040 -c 1 -i 11 -a 1 -x {0.0 4.0 4 ------- null}
- -t 4.560016 -s 0 -d 2 -p tcp -e 1040 -c 1 -i 11 -a 1 -x {0.0 4.0 4 ------- null}
h -t 4.560016 -s 0 -d 2 -p tcp -e 1040 -c 1 -i 11 -a 1 -x {0.0 4.0 -1 ------- null}
r -t 4.56002224 -s 2 -d 0 -p ack -e 40 -c 1 -i 9 -a 1 -x {4.0 0.0 2 ------- null}
+ -t 4.56002224 -s 0 -d 2 -p tcp -e 1040 -c 1 -i 12 -a 1 -x {0.0 4.0 5 ------- null}
- -t 4.56002224 -s 0 -d 2 -p tcp -e 1040 -c 1 -i 12 -a 1 -x {0.0 4.0 5 ------- null}
h -t 4.56002224 -s 0 -d 2 -p tcp -e 1040 -c 1 -i 12 -a 1 -x {0.0 4.0 -1 ------- null}
+ -t 4.56002224 -s 0 -d 2 -p tcp -e 1040 -c 1 -i 13 -a 1 -x {0.0 4.0 6 ------- null}
- -t 4.56002432 -s 0 -d 2 -p tcp -e 1040 -c 1 -i 13 -a 1 -x {0.0 4.0 6 ------- null}
h -t 4.56002432 -s 0 -d 2 -p tcp -e 1040 -c 1 -i 13 -a 1 -x {0.0 4.0 -1 ------- null}
r -t 4.69600048 -s 3 -d 5 -p tcp -e 40 -c 2 -i 6 -a 2 -x {1.0 5.0 0 ---A--- null}
+ -t 4.69600048 -s 5 -d 3 -p ack -e 40 -c 2 -i 14 -a 2 -x {5.0 1.0 0 ------- null}
- -t 4.69600048 -s 5 -d 3 -p ack -e 40 -c 2 -i 14 -a 2 -x {5.0 1.0 0 ------- null}
h -t 4.69600048 -s 5 -d 3 -p ack -e 40 -c 2 -i 14 -a 2 -x {5.0 1.0 -1 ------- null}
r -t 5.08801344 -s 3 -d 5 -p tcp -e 1040 -c 2 -i 7 -a 2 -x {1.0 5.0 1 ------- null}
+ -t 5.08801344 -s 5 -d 3 -p ack -e 40 -c 2 -i 15 -a 2 -x {5.0 1.0 1 ------- null}
- -t 5.08801344 -s 5 -d 3 -p ack -e 40 -c 2 -i 15 -a 2 -x {5.0 1.0 1 ------- null}
h -t 5.08801344 -s 5 -d 3 -p ack -e 40 -c 2 -i 15 -a 2 -x {5.0 1.0 -1 ------- null}
r -t 5.105016 -s 0 -d 2 -p tcp -e 1040 -c 1 -i 10 -a 1 -x {0.0 4.0 3 ------- null}
+ -t 5.105016 -s 2 -d 3 -p tcp -e 1040 -c 1 -i 10 -a 1 -x {0.0 4.0 3 ------- null}
- -t 5.105016 -s 2 -d 3 -p tcp -e 1040 -c 1 -i 10 -a 1 -x {0.0 4.0 3 ------- null}
h -t 5.105016 -s 2 -d 3 -p tcp -e 1040 -c 1 -i 10 -a 1 -x {0.0 4.0 -1 ------- null}
r -t 5.10501808 -s 0 -d 2 -p tcp -e 1040 -c 1 -i 11 -a 1 -x {0.0 4.0 4 ------- null}
+ -t 5.10501808 -s 2 -d 3 -p tcp -e 1040 -c 1 -i 11 -a 1 -x {0.0 4.0 4 ------- null}
r -t 5.10502432 -s 0 -d 2 -p tcp -e 1040 -c 1 -i 12 -a 1 -x {0.0 4.0 5 ------- null}
+ -t 5.10502432 -s 2 -d 3 -p tcp -e 1040 -c 1 -i 12 -a 1 -x {0.0 4.0 5 ------- null}
- -t 5.10502432 -s 2 -d 3 -p tcp -e 1040 -c 1 -i 11 -a 1 -x {0.0 4.0 4 ------- null}
h -t 5.10502432 -s 2 -d 3 -p tcp -e 1040 -c 1 -i 11 -a 1 -x {0.0 4.0 -1 ------- null}
r -t 5.1050264 -s 0 -d 2 -p tcp -e 1040 -c 1 -i 13 -a 1 -x {0.0 4.0 6 ------- null}
+ -t 5.1050264 -s 2 -d 3 -p tcp -e 1040 -c 1 -i 13 -a 1 -x {0.0 4.0 6 ------- null}
- -t 5.10503264 -s 2 -d 3 -p tcp -e 1040 -c 1 -i 12 -a 1 -x {0.0 4.0 5 ------- null}
h -t 5.10503264 -s 2 -d 3 -p tcp -e 1040 -c 1 -i 12 -a 1 -x {0.0 4.0 -1 ------- null}
- -t 5.10504096 -s 2 -d 3 -p tcp -e 1040 -c 1 -i 13 -a 1 -x {0.0 4.0 6 ------- null}
h -t 5.10504096 -s 2 -d 3 -p tcp -e 1040 -c 1 -i 13 -a 1 -x {0.0 4.0 -1 ------- null}
r -t 5.15502432 -s 2 -d 3 -p tcp -e 1040 -c 1 -i 10 -a 1 -x {0.0 4.0 3 ------- null}
+ -t 5.15502432 -s 3 -d 4 -p tcp -e 1040 -c 1 -i 10 -a 1 -x {0.0 4.0 3 ------- null}
- -t 5.15502432 -s 3 -d 4 -p tcp -e 1040 -c 1 -i 10 -a 1 -x {0.0 4.0 3 ------- null}
h -t 5.15502432 -s 3 -d 4 -p tcp -e 1040 -c 1 -i 10 -a 1 -x {0.0 4.0 -1 ------- null}
r -t 5.15503264 -s 2 -d 3 -p tcp -e 1040 -c 1 -i 11 -a 1 -x {0.0 4.0 4 ------- null}
+ -t 5.15503264 -s 3 -d 4 -p tcp -e 1040 -c 1 -i 11 -a 1 -x {0.0 4.0 4 ------- null}
- -t 5.15503264 -s 3 -d 4 -p tcp -e 1040 -c 1 -i 11 -a 1 -x {0.0 4.0 4 ------- null}
h -t 5.15503264 -s 3 -d 4 -p tcp -e 1040 -c 1 -i 11 -a 1 -x {0.0 4.0 -1 ------- null}
r -t 5.15504096 -s 2 -d 3 -p tcp -e 1040 -c 1 -i 12 -a 1 -x {0.0 4.0 5 ------- null}
+ -t 5.15504096 -s 3 -d 4 -p tcp -e 1040 -c 1 -i 12 -a 1 -x {0.0 4.0 5 ------- null}
- -t 5.15504096 -s 3 -d 4 -p tcp -e 1040 -c 1 -i 12 -a 1 -x {0.0 4.0 5 ------- null}
h -t 5.15504096 -s 3 -d 4 -p tcp -e 1040 -c 1 -i 12 -a 1 -x {0.0 4.0 -1 ------- null}
r -t 5.15504928 -s 2 -d 3 -p tcp -e 1040 -c 1 -i 13 -a 1 -x {0.0 4.0 6 ------- null}
+ -t 5.15504928 -s 3 -d 4 -p tcp -e 1040 -c 1 -i 13 -a 1 -x {0.0 4.0 6 ------- null}
- -t 5.15504928 -s 3 -d 4 -p tcp -e 1040 -c 1 -i 13 -a 1 -x {0.0 4.0 6 ------- null}
h -t 5.15504928 -s 3 -d 4 -p tcp -e 1040 -c 1 -i 13 -a 1 -x {0.0 4.0 -1 ------- null}
r -t 5.51900056 -s 5 -d 3 -p ack -e 40 -c 2 -i 14 -a 2 -x {5.0 1.0 0 ------- null}
+ -t 5.51900056 -s 3 -d 2 -p ack -e 40 -c 2 -i 14 -a 2 -x {5.0 1.0 0 ------- null}
- -t 5.51900056 -s 3 -d 2 -p ack -e 40 -c 2 -i 14 -a 2 -x {5.0 1.0 0 ------- null}
h -t 5.51900056 -s 3 -d 2 -p ack -e 40 -c 2 -i 14 -a 2 -x {5.0 1.0 -1 ------- null}
r -t 5.56900088 -s 3 -d 2 -p ack -e 40 -c 2 -i 14 -a 2 -x {5.0 1.0 0 ------- null}
+ -t 5.56900088 -s 2 -d 1 -p ack -e 40 -c 2 -i 14 -a 2 -x {5.0 1.0 0 ------- null}
- -t 5.56900088 -s 2 -d 1 -p ack -e 40 -c 2 -i 14 -a 2 -x {5.0 1.0 0 ------- null}
h -t 5.56900088 -s 2 -d 1 -p ack -e 40 -c 2 -i 14 -a 2 -x {5.0 1.0 -1 ------- null}
r -t 5.7000264 -s 3 -d 4 -p tcp -e 1040 -c 1 -i 10 -a 1 -x {0.0 4.0 3 ------- null}
+ -t 5.7000264 -s 4 -d 3 -p ack -e 40 -c 1 -i 16 -a 1 -x {4.0 0.0 3 ------- null}
- -t 5.7000264 -s 4 -d 3 -p ack -e 40 -c 1 -i 16 -a 1 -x {4.0 0.0 3 ------- null}
h -t 5.7000264 -s 4 -d 3 -p ack -e 40 -c 1 -i 16 -a 1 -x {4.0 0.0 -1 ------- null}
r -t 5.70003472 -s 3 -d 4 -p tcp -e 1040 -c 1 -i 11 -a 1 -x {0.0 4.0 4 ------- null}
+ -t 5.70003472 -s 4 -d 3 -p ack -e 40 -c 1 -i 17 -a 1 -x {4.0 0.0 4 ------- null}
- -t 5.70003472 -s 4 -d 3 -p ack -e 40 -c 1 -i 17 -a 1 -x {4.0 0.0 4 ------- null}
h -t 5.70003472 -s 4 -d 3 -p ack -e 40 -c 1 -i 17 -a 1 -x {4.0 0.0 -1 ------- null}
r -t 5.70004304 -s 3 -d 4 -p tcp -e 1040 -c 1 -i 12 -a 1 -x {0.0 4.0 5 ------- null}
+ -t 5.70004304 -s 4 -d 3 -p ack -e 40 -c 1 -i 18 -a 1 -x {4.0 0.0 5 ------- null}
- -t 5.70004304 -s 4 -d 3 -p ack -e 40 -c 1 -i 18 -a 1 -x {4.0 0.0 5 ------- null}
h -t 5.70004304 -s 4 -d 3 -p ack -e 40 -c 1 -i 18 -a 1 -x {4.0 0.0 -1 ------- null}
r -t 5.70005136 -s 3 -d 4 -p tcp -e 1040 -c 1 -i 13 -a 1 -x {0.0 4.0 6 ------- null}
+ -t 5.70005136 -s 4 -d 3 -p ack -e 40 -c 1 -i 19 -a 1 -x {4.0 0.0 6 ------- null}
- -t 5.70005136 -s 4 -d 3 -p ack -e 40 -c 1 -i 19 -a 1 -x {4.0 0.0 6 ------- null}
h -t 5.70005136 -s 4 -d 3 -p ack -e 40 -c 1 -i 19 -a 1 -x {4.0 0.0 -1 ------- null}
r -t 5.91101352 -s 5 -d 3 -p ack -e 40 -c 2 -i 15 -a 2 -x {5.0 1.0 1 ------- null}
+ -t 5.91101352 -s 3 -d 2 -p ack -e 40 -c 2 -i 15 -a 2 -x {5.0 1.0 1 ------- null}
- -t 5.91101352 -s 3 -d 2 -p ack -e 40 -c 2 -i 15 -a 2 -x {5.0 1.0 1 ------- null}
h -t 5.91101352 -s 3 -d 2 -p ack -e 40 -c 2 -i 15 -a 2 -x {5.0 1.0 -1 ------- null}
r -t 5.96101384 -s 3 -d 2 -p ack -e 40 -c 2 -i 15 -a 2 -x {5.0 1.0 1 ------- null}
+ -t 5.96101384 -s 2 -d 1 -p ack -e 40 -c 2 -i 15 -a 2 -x {5.0 1.0 1 ------- null}
- -t 5.96101384 -s 2 -d 1 -p ack -e 40 -c 2 -i 15 -a 2 -x {5.0 1.0 1 ------- null}
h -t 5.96101384 -s 2 -d 1 -p ack -e 40 -c 2 -i 15 -a 2 -x {5.0 1.0 -1 ------- null}
r -t 6.24502648 -s 4 -d 3 -p ack -e 40 -c 1 -i 16 -a 1 -x {4.0 0.0 3 ------- null}
+ -t 6.24502648 -s 3 -d 2 -p ack -e 40 -c 1 -i 16 -a 1 -x {4.0 0.0 3 ------- null}
- -t 6.24502648 -s 3 -d 2 -p ack -e 40 -c 1 -i 16 -a 1 -x {4.0 0.0 3 ------- null}
h -t 6.24502648 -s 3 -d 2 -p ack -e 40 -c 1 -i 16 -a 1 -x {4.0 0.0 -1 ------- null}
r -t 6.2450348 -s 4 -d 3 -p ack -e 40 -c 1 -i 17 -a 1 -x {4.0 0.0 4 ------- null}
+ -t 6.2450348 -s 3 -d 2 -p ack -e 40 -c 1 -i 17 -a 1 -x {4.0 0.0 4 ------- null}
- -t 6.2450348 -s 3 -d 2 -p ack -e 40 -c 1 -i 17 -a 1 -x {4.0 0.0 4 ------- null}
h -t 6.2450348 -s 3 -d 2 -p ack -e 40 -c 1 -i 17 -a 1 -x {4.0 0.0 -1 ------- null}
r -t 6.24504312 -s 4 -d 3 -p ack -e 40 -c 1 -i 18 -a 1 -x {4.0 0.0 5 ------- null}
+ -t 6.24504312 -s 3 -d 2 -p ack -e 40 -c 1 -i 18 -a 1 -x {4.0 0.0 5 ------- null}
- -t 6.24504312 -s 3 -d 2 -p ack -e 40 -c 1 -i 18 -a 1 -x {4.0 0.0 5 ------- null}
h -t 6.24504312 -s 3 -d 2 -p ack -e 40 -c 1 -i 18 -a 1 -x {4.0 0.0 -1 ------- null}
r -t 6.24505144 -s 4 -d 3 -p ack -e 40 -c 1 -i 19 -a 1 -x {4.0 0.0 6 ------- null}
+ -t 6.24505144 -s 3 -d 2 -p ack -e 40 -c 1 -i 19 -a 1 -x {4.0 0.0 6 ------- null}
- -t 6.24505144 -s 3 -d 2 -p ack -e 40 -c 1 -i 19 -a 1 -x {4.0 0.0 6 ------- null}
h -t 6.24505144 -s 3 -d 2 -p ack -e 40 -c 1 -i 19 -a 1 -x {4.0 0.0 -1 ------- null}
r -t 6.2950268 -s 3 -d 2 -p ack -e 40 -c 1 -i 16 -a 1 -x {4.0 0.0 3 ------- null}
+ -t 6.2950268 -s 2 -d 0 -p ack -e 40 -c 1 -i 16 -a 1 -x {4.0 0.0 3 ------- null}
- -t 6.2950268 -s 2 -d 0 -p ack -e 40 -c 1 -i 16 -a 1 -x {4.0 0.0 3 ------- null}
h -t 6.2950268 -s 2 -d 0 -p ack -e 40 -c 1 -i 16 -a 1 -x {4.0 0.0 -1 ------- null}
r -t 6.29503512 -s 3 -d 2 -p ack -e 40 -c 1 -i 17 -a 1 -x {4.0 0.0 4 ------- null}
+ -t 6.29503512 -s 2 -d 0 -p ack -e 40 -c 1 -i 17 -a 1 -x {4.0 0.0 4 ------- null}
- -t 6.29503512 -s 2 -d 0 -p ack -e 40 -c 1 -i 17 -a 1 -x {4.0 0.0 4 ------- null}
h -t 6.29503512 -s 2 -d 0 -p ack -e 40 -c 1 -i 17 -a 1 -x {4.0 0.0 -1 ------- null}
r -t 6.29504344 -s 3 -d 2 -p ack -e 40 -c 1 -i 18 -a 1 -x {4.0 0.0 5 ------- null}
+ -t 6.29504344 -s 2 -d 0 -p ack -e 40 -c 1 -i 18 -a 1 -x {4.0 0.0 5 ------- null}
- -t 6.29504344 -s 2 -d 0 -p ack -e 40 -c 1 -i 18 -a 1 -x {4.0 0.0 5 ------- null}
h -t 6.29504344 -s 2 -d 0 -p ack -e 40 -c 1 -i 18 -a 1 -x {4.0 0.0 -1 ------- null}
r -t 6.29505176 -s 3 -d 2 -p ack -e 40 -c 1 -i 19 -a 1 -x {4.0 0.0 6 ------- null}
+ -t 6.29505176 -s 2 -d 0 -p ack -e 40 -c 1 -i 19 -a 1 -x {4.0 0.0 6 ------- null}
- -t 6.29505176 -s 2 -d 0 -p ack -e 40 -c 1 -i 19 -a 1 -x {4.0 0.0 6 ------- null}
h -t 6.29505176 -s 2 -d 0 -p ack -e 40 -c 1 -i 19 -a 1 -x {4.0 0.0 -1 ------- null}
r -t 6.39200096 -s 2 -d 1 -p ack -e 40 -c 2 -i 14 -a 2 -x {5.0 1.0 0 ------- null}
+ -t 6.39200096 -s 1 -d 2 -p tcp -e 1040 -c 2 -i 20 -a 2 -x {1.0 5.0 2 ------- null}
- -t 6.39200096 -s 1 -d 2 -p tcp -e 1040 -c 2 -i 20 -a 2 -x {1.0 5.0 2 ------- null}
h -t 6.39200096 -s 1 -d 2 -p tcp -e 1040 -c 2 -i 20 -a 2 -x {1.0 5.0 -1 ------- null}
r -t 6.78401392 -s 2 -d 1 -p ack -e 40 -c 2 -i 15 -a 2 -x {5.0 1.0 1 ------- null}
+ -t 6.78401392 -s 1 -d 2 -p tcp -e 1040 -c 2 -i 21 -a 2 -x {1.0 5.0 3 ------- null}
- -t 6.78401392 -s 1 -d 2 -p tcp -e 1040 -c 2 -i 21 -a 2 -x {1.0 5.0 3 ------- null}
h -t 6.78401392 -s 1 -d 2 -p tcp -e 1040 -c 2 -i 21 -a 2 -x {1.0 5.0 -1 ------- null}
r -t 6.84002688 -s 2 -d 0 -p ack -e 40 -c 1 -i 16 -a 1 -x {4.0 0.0 3 ------- null}
+ -t 6.84002688 -s 0 -d 2 -p tcp -e 1040 -c 1 -i 22 -a 1 -x {0.0 4.0 7 ------- null}
- -t 6.84002688 -s 0 -d 2 -p tcp -e 1040 -c 1 -i 22 -a 1 -x {0.0 4.0 7 ------- null}
h -t 6.84002688 -s 0 -d 2 -p tcp -e 1040 -c 1 -i 22 -a 1 -x {0.0 4.0 -1 ------- null}
+ -t 6.84002688 -s 0 -d 2 -p tcp -e 1040 -c 1 -i 23 -a 1 -x {0.0 4.0 8 ------- null}
- -t 6.84002896 -s 0 -d 2 -p tcp -e 1040 -c 1 -i 23 -a 1 -x {0.0 4.0 8 ------- null}
h -t 6.84002896 -s 0 -d 2 -p tcp -e 1040 -c 1 -i 23 -a 1 -x {0.0 4.0 -1 ------- null}
r -t 6.8400352 -s 2 -d 0 -p ack -e 40 -c 1 -i 17 -a 1 -x {4.0 0.0 4 ------- null}
+ -t 6.8400352 -s 0 -d 2 -p tcp -e 1040 -c 1 -i 24 -a 1 -x {0.0 4.0 9 ------- null}
- -t 6.8400352 -s 0 -d 2 -p tcp -e 1040 -c 1 -i 24 -a 1 -x {0.0 4.0 9 ------- null}
h -t 6.8400352 -s 0 -d 2 -p tcp -e 1040 -c 1 -i 24 -a 1 -x {0.0 4.0 -1 ------- null}
+ -t 6.8400352 -s 0 -d 2 -p tcp -e 1040 -c 1 -i 25 -a 1 -x {0.0 4.0 10 ------- null}
- -t 6.84003728 -s 0 -d 2 -p tcp -e 1040 -c 1 -i 25 -a 1 -x {0.0 4.0 10 ------- null}
h -t 6.84003728 -s 0 -d 2 -p tcp -e 1040 -c 1 -i 25 -a 1 -x {0.0 4.0 -1 ------- null}
r -t 6.84004352 -s 2 -d 0 -p ack -e 40 -c 1 -i 18 -a 1 -x {4.0 0.0 5 ------- null}
+ -t 6.84004352 -s 0 -d 2 -p tcp -e 1040 -c 1 -i 26 -a 1 -x {0.0 4.0 11 ------- null}
- -t 6.84004352 -s 0 -d 2 -p tcp -e 1040 -c 1 -i 26 -a 1 -x {0.0 4.0 11 ------- null}
h -t 6.84004352 -s 0 -d 2 -p tcp -e 1040 -c 1 -i 26 -a 1 -x {0.0 4.0 -1 ------- null}
+ -t 6.84004352 -s 0 -d 2 -p tcp -e 1040 -c 1 -i 27 -a 1 -x {0.0 4.0 12 ------- null}
- -t 6.8400456 -s 0 -d 2 -p tcp -e 1040 -c 1 -i 27 -a 1 -x {0.0 4.0 12 ------- null}
h -t 6.8400456 -s 0 -d 2 -p tcp -e 1040 -c 1 -i 27 -a 1 -x {0.0 4.0 -1 ------- null}
r -t 6.84005184 -s 2 -d 0 -p ack -e 40 -c 1 -i 19 -a 1 -x {4.0 0.0 6 ------- null}
+ -t 6.84005184 -s 0 -d 2 -p tcp -e 1040 -c 1 -i 28 -a 1 -x {0.0 4.0 13 ------- null}
- -t 6.84005184 -s 0 -d 2 -p tcp -e 1040 -c 1 -i 28 -a 1 -x {0.0 4.0 13 ------- null}
h -t 6.84005184 -s 0 -d 2 -p tcp -e 1040 -c 1 -i 28 -a 1 -x {0.0 4.0 -1 ------- null}
+ -t 6.84005184 -s 0 -d 2 -p tcp -e 1040 -c 1 -i 29 -a 1 -x {0.0 4.0 14 ------- null}
- -t 6.84005392 -s 0 -d 2 -p tcp -e 1040 -c 1 -i 29 -a 1 -x {0.0 4.0 14 ------- null}
h -t 6.84005392 -s 0 -d 2 -p tcp -e 1040 -c 1 -i 29 -a 1 -x {0.0 4.0 -1 ------- null}
r -t 7.21500304 -s 1 -d 2 -p tcp -e 1040 -c 2 -i 20 -a 2 -x {1.0 5.0 2 ------- null}
+ -t 7.21500304 -s 2 -d 3 -p tcp -e 1040 -c 2 -i 20 -a 2 -x {1.0 5.0 2 ------- null}
- -t 7.21500304 -s 2 -d 3 -p tcp -e 1040 -c 2 -i 20 -a 2 -x {1.0 5.0 2 ------- null}
h -t 7.21500304 -s 2 -d 3 -p tcp -e 1040 -c 2 -i 20 -a 2 -x {1.0 5.0 -1 ------- null}
r -t 7.26501136 -s 2 -d 3 -p tcp -e 1040 -c 2 -i 20 -a 2 -x {1.0 5.0 2 ------- null}
+ -t 7.26501136 -s 3 -d 5 -p tcp -e 1040 -c 2 -i 20 -a 2 -x {1.0 5.0 2 ------- null}
- -t 7.26501136 -s 3 -d 5 -p tcp -e 1040 -c 2 -i 20 -a 2 -x {1.0 5.0 2 ------- null}
h -t 7.26501136 -s 3 -d 5 -p tcp -e 1040 -c 2 -i 20 -a 2 -x {1.0 5.0 -1 ------- null}
r -t 7.38502896 -s 0 -d 2 -p tcp -e 1040 -c 1 -i 22 -a 1 -x {0.0 4.0 7 ------- null}
+ -t 7.38502896 -s 2 -d 3 -p tcp -e 1040 -c 1 -i 22 -a 1 -x {0.0 4.0 7 ------- null}
- -t 7.38502896 -s 2 -d 3 -p tcp -e 1040 -c 1 -i 22 -a 1 -x {0.0 4.0 7 ------- null}
h -t 7.38502896 -s 2 -d 3 -p tcp -e 1040 -c 1 -i 22 -a 1 -x {0.0 4.0 -1 ------- null}
r -t 7.38503104 -s 0 -d 2 -p tcp -e 1040 -c 1 -i 23 -a 1 -x {0.0 4.0 8 ------- null}
+ -t 7.38503104 -s 2 -d 3 -p tcp -e 1040 -c 1 -i 23 -a 1 -x {0.0 4.0 8 ------- null}
r -t 7.38503728 -s 0 -d 2 -p tcp -e 1040 -c 1 -i 24 -a 1 -x {0.0 4.0 9 ------- null}
+ -t 7.38503728 -s 2 -d 3 -p tcp -e 1040 -c 1 -i 24 -a 1 -x {0.0 4.0 9 ------- null}
- -t 7.38503728 -s 2 -d 3 -p tcp -e 1040 -c 1 -i 23 -a 1 -x {0.0 4.0 8 ------- null}
h -t 7.38503728 -s 2 -d 3 -p tcp -e 1040 -c 1 -i 23 -a 1 -x {0.0 4.0 -1 ------- null}
r -t 7.38503936 -s 0 -d 2 -p tcp -e 1040 -c 1 -i 25 -a 1 -x {0.0 4.0 10 ------- null}
+ -t 7.38503936 -s 2 -d 3 -p tcp -e 1040 -c 1 -i 25 -a 1 -x {0.0 4.0 10 ------- null}
r -t 7.3850456 -s 0 -d 2 -p tcp -e 1040 -c 1 -i 26 -a 1 -x {0.0 4.0 11 ------- null}
+ -t 7.3850456 -s 2 -d 3 -p tcp -e 1040 -c 1 -i 26 -a 1 -x {0.0 4.0 11 ------- null}
- -t 7.3850456 -s 2 -d 3 -p tcp -e 1040 -c 1 -i 24 -a 1 -x {0.0 4.0 9 ------- null}
h -t 7.3850456 -s 2 -d 3 -p tcp -e 1040 -c 1 -i 24 -a 1 -x {0.0 4.0 -1 ------- null}
r -t 7.38504768 -s 0 -d 2 -p tcp -e 1040 -c 1 -i 27 -a 1 -x {0.0 4.0 12 ------- null}
+ -t 7.38504768 -s 2 -d 3 -p tcp -e 1040 -c 1 -i 27 -a 1 -x {0.0 4.0 12 ------- null}
r -t 7.38505392 -s 0 -d 2 -p tcp -e 1040 -c 1 -i 28 -a 1 -x {0.0 4.0 13 ------- null}
+ -t 7.38505392 -s 2 -d 3 -p tcp -e 1040 -c 1 -i 28 -a 1 -x {0.0 4.0 13 ------- null}
- -t 7.38505392 -s 2 -d 3 -p tcp -e 1040 -c 1 -i 25 -a 1 -x {0.0 4.0 10 ------- null}
h -t 7.38505392 -s 2 -d 3 -p tcp -e 1040 -c 1 -i 25 -a 1 -x {0.0 4.0 -1 ------- null}
r -t 7.385056 -s 0 -d 2 -p tcp -e 1040 -c 1 -i 29 -a 1 -x {0.0 4.0 14 ------- null}
+ -t 7.385056 -s 2 -d 3 -p tcp -e 1040 -c 1 -i 29 -a 1 -x {0.0 4.0 14 ------- null}
- -t 7.38506224 -s 2 -d 3 -p tcp -e 1040 -c 1 -i 26 -a 1 -x {0.0 4.0 11 ------- null}
h -t 7.38506224 -s 2 -d 3 -p tcp -e 1040 -c 1 -i 26 -a 1 -x {0.0 4.0 -1 ------- null}
- -t 7.38507056 -s 2 -d 3 -p tcp -e 1040 -c 1 -i 27 -a 1 -x {0.0 4.0 12 ------- null}
h -t 7.38507056 -s 2 -d 3 -p tcp -e 1040 -c 1 -i 27 -a 1 -x {0.0 4.0 -1 ------- null}
- -t 7.38507888 -s 2 -d 3 -p tcp -e 1040 -c 1 -i 28 -a 1 -x {0.0 4.0 13 ------- null}
h -t 7.38507888 -s 2 -d 3 -p tcp -e 1040 -c 1 -i 28 -a 1 -x {0.0 4.0 -1 ------- null}
- -t 7.3850872 -s 2 -d 3 -p tcp -e 1040 -c 1 -i 29 -a 1 -x {0.0 4.0 14 ------- null}
h -t 7.3850872 -s 2 -d 3 -p tcp -e 1040 -c 1 -i 29 -a 1 -x {0.0 4.0 -1 ------- null}
r -t 7.43503728 -s 2 -d 3 -p tcp -e 1040 -c 1 -i 22 -a 1 -x {0.0 4.0 7 ------- null}
+ -t 7.43503728 -s 3 -d 4 -p tcp -e 1040 -c 1 -i 22 -a 1 -x {0.0 4.0 7 ------- null}
- -t 7.43503728 -s 3 -d 4 -p tcp -e 1040 -c 1 -i 22 -a 1 -x {0.0 4.0 7 ------- null}
h -t 7.43503728 -s 3 -d 4 -p tcp -e 1040 -c 1 -i 22 -a 1 -x {0.0 4.0 -1 ------- null}
r -t 7.4350456 -s 2 -d 3 -p tcp -e 1040 -c 1 -i 23 -a 1 -x {0.0 4.0 8 ------- null}
+ -t 7.4350456 -s 3 -d 4 -p tcp -e 1040 -c 1 -i 23 -a 1 -x {0.0 4.0 8 ------- null}
- -t 7.4350456 -s 3 -d 4 -p tcp -e 1040 -c 1 -i 23 -a 1 -x {0.0 4.0 8 ------- null}
h -t 7.4350456 -s 3 -d 4 -p tcp -e 1040 -c 1 -i 23 -a 1 -x {0.0 4.0 -1 ------- null}
r -t 7.43505392 -s 2 -d 3 -p tcp -e 1040 -c 1 -i 24 -a 1 -x {0.0 4.0 9 ------- null}
+ -t 7.43505392 -s 3 -d 4 -p tcp -e 1040 -c 1 -i 24 -a 1 -x {0.0 4.0 9 ------- null}
- -t 7.43505392 -s 3 -d 4 -p tcp -e 1040 -c 1 -i 24 -a 1 -x {0.0 4.0 9 ------- null}
h -t 7.43505392 -s 3 -d 4 -p tcp -e 1040 -c 1 -i 24 -a 1 -x {0.0 4.0 -1 ------- null}
r -t 7.43506224 -s 2 -d 3 -p tcp -e 1040 -c 1 -i 25 -a 1 -x {0.0 4.0 10 ------- null}
+ -t 7.43506224 -s 3 -d 4 -p tcp -e 1040 -c 1 -i 25 -a 1 -x {0.0 4.0 10 ------- null}
- -t 7.43506224 -s 3 -d 4 -p tcp -e 1040 -c 1 -i 25 -a 1 -x {0.0 4.0 10 ------- null}
h -t 7.43506224 -s 3 -d 4 -p tcp -e 1040 -c 1 -i 25 -a 1 -x {0.0 4.0 -1 ------- null}
r -t 7.43507056 -s 2 -d 3 -p tcp -e 1040 -c 1 -i 26 -a 1 -x {0.0 4.0 11 ------- null}
+ -t 7.43507056 -s 3 -d 4 -p tcp -e 1040 -c 1 -i 26 -a 1 -x {0.0 4.0 11 ------- null}
- -t 7.43507056 -s 3 -d 4 -p tcp -e 1040 -c 1 -i 26 -a 1 -x {0.0 4.0 11 ------- null}
h -t 7.43507056 -s 3 -d 4 -p tcp -e 1040 -c 1 -i 26 -a 1 -x {0.0 4.0 -1 ------- null}
r -t 7.43507888 -s 2 -d 3 -p tcp -e 1040 -c 1 -i 27 -a 1 -x {0.0 4.0 12 ------- null}
+ -t 7.43507888 -s 3 -d 4 -p tcp -e 1040 -c 1 -i 27 -a 1 -x {0.0 4.0 12 ------- null}
- -t 7.43507888 -s 3 -d 4 -p tcp -e 1040 -c 1 -i 27 -a 1 -x {0.0 4.0 12 ------- null}
h -t 7.43507888 -s 3 -d 4 -p tcp -e 1040 -c 1 -i 27 -a 1 -x {0.0 4.0 -1 ------- null}
r -t 7.4350872 -s 2 -d 3 -p tcp -e 1040 -c 1 -i 28 -a 1 -x {0.0 4.0 13 ------- null}
+ -t 7.4350872 -s 3 -d 4 -p tcp -e 1040 -c 1 -i 28 -a 1 -x {0.0 4.0 13 ------- null}
- -t 7.4350872 -s 3 -d 4 -p tcp -e 1040 -c 1 -i 28 -a 1 -x {0.0 4.0 13 ------- null}
h -t 7.4350872 -s 3 -d 4 -p tcp -e 1040 -c 1 -i 28 -a 1 -x {0.0 4.0 -1 ------- null}
r -t 7.43509552 -s 2 -d 3 -p tcp -e 1040 -c 1 -i 29 -a 1 -x {0.0 4.0 14 ------- null}
+ -t 7.43509552 -s 3 -d 4 -p tcp -e 1040 -c 1 -i 29 -a 1 -x {0.0 4.0 14 ------- null}
- -t 7.43509552 -s 3 -d 4 -p tcp -e 1040 -c 1 -i 29 -a 1 -x {0.0 4.0 14 ------- null}
h -t 7.43509552 -s 3 -d 4 -p tcp -e 1040 -c 1 -i 29 -a 1 -x {0.0 4.0 -1 ------- null}
r -t 7.607016 -s 1 -d 2 -p tcp -e 1040 -c 2 -i 21 -a 2 -x {1.0 5.0 3 ------- null}
+ -t 7.607016 -s 2 -d 3 -p tcp -e 1040 -c 2 -i 21 -a 2 -x {1.0 5.0 3 ------- null}
- -t 7.607016 -s 2 -d 3 -p tcp -e 1040 -c 2 -i 21 -a 2 -x {1.0 5.0 3 ------- null}
h -t 7.607016 -s 2 -d 3 -p tcp -e 1040 -c 2 -i 21 -a 2 -x {1.0 5.0 -1 ------- null}
r -t 7.65702432 -s 2 -d 3 -p tcp -e 1040 -c 2 -i 21 -a 2 -x {1.0 5.0 3 ------- null}
+ -t 7.65702432 -s 3 -d 5 -p tcp -e 1040 -c 2 -i 21 -a 2 -x {1.0 5.0 3 ------- null}