0.00000  0  0  4  0  cwnd_ 1.000 
0.00000  0  0  4  0  ssthresh_ 20
0.00000  0  0  4  0  ack_ -1
0.00000  0  0  4  0  maxseq_ -1
0.00000  0  0  4  0  rtt_ 0.000 
0.00000  1  0  5  0  cwnd_ 1.000 
0.00000  1  0  5  0  ssthresh_ 20
0.00000  1  0  5  0  ack_ -1
0.00000  1  0  5  0  maxseq_ -1
0.00000  1  0  5  0  rtt_ 0.000 
0.00000  0  0  4  0  ssthresh_ 1000
0.00000  1  0  5  0  ssthresh_ 1000
+ 0 1 2 tcp 1000 ------- 2 1.0 5.0 0 0
- 0 1 2 tcp 1000 ------- 2 1.0 5.0 0 0
0.00000  1  0  5  0  maxseq_ 0
+ 0 0 2 tcp 1000 ------- 1 0.0 4.0 0 1
- 0 0 2 tcp 1000 ------- 1 0.0 4.0 0 1
0.00000  0  0  4  0  maxseq_ 0
r 0.589002 0 2 tcp 1000 ------- 1 0.0 4.0 0 1
+ 0.589002 2 3 tcp 1000 ------- 1 0.0 4.0 0 1
- 0.589002 2 3 tcp 1000 ------- 1 0.0 4.0 0 1
r 0.63901 2 3 tcp 1000 ------- 1 0.0 4.0 0 1
+ 0.63901 3 4 tcp 1000 ------- 1 0.0 4.0 0 1
- 0.63901 3 4 tcp 1000 ------- 1 0.0 4.0 0 1
r 0.867002 1 2 tcp 1000 ------- 2 1.0 5.0 0 0
+ 0.867002 2 3 tcp 1000 ------- 2 1.0 5.0 0 0
- 0.867002 2 3 tcp 1000 ------- 2 1.0 5.0 0 0
r 0.91701 2 3 tcp 1000 ------- 2 1.0 5.0 0 0
+ 0.91701 3 5 tcp 1000 ------- 2 1.0 5.0 0 0
- 0.91701 3 5 tcp 1000 ------- 2 1.0 5.0 0 0
r 1.228012 3 4 tcp 1000 ------- 1 0.0 4.0 0 1
+ 1.228012 4 3 ack 40 ------- 1 4.0 0.0 0 2
- 1.228012 4 3 ack 40 ------- 1 4.0 0.0 0 2
r 1.784012 3 5 tcp 1000 ------- 2 1.0 5.0 0 0
+ 1.784012 5 3 ack 40 ------- 2 5.0 1.0 0 3
- 1.784012 5 3 ack 40 ------- 2 5.0 1.0 0 3
r 1.817012 4 3 ack 40 ------- 1 4.0 0.0 0 2
+ 1.817012 3 2 ack 40 ------- 1 4.0 0.0 0 2
- 1.817012 3 2 ack 40 ------- 1 4.0 0.0 0 2
r 1.867012 3 2 ack 40 ------- 1 4.0 0.0 0 2
+ 1.867012 2 0 ack 40 ------- 1 4.0 0.0 0 2
- 1.867012 2 0 ack 40 ------- 1 4.0 0.0 0 2
r 2.456012 2 0 ack 40 ------- 1 4.0 0.0 0 2
2.45601  0  0  4  0  ack_ 0
2.45601  0  0  4  0  rtt_ 2.460 
+ 2.456012 0 2 tcp 1000 ------- 1 0.0 4.0 1 4
- 2.456012 0 2 tcp 1000 ------- 1 0.0 4.0 1 4
2.45601  0  0  4  0  maxseq_ 1
r 2.651012 5 3 ack 40 ------- 2 5.0 1.0 0 3
+ 2.651012 3 2 ack 40 ------- 2 5.0 1.0 0 3
- 2.651012 3 2 ack 40 ------- 2 5.0 1.0 0 3
r 2.701012 3 2 ack 40 ------- 2 5.0 1.0 0 3
+ 2.701012 2 1 ack 40 ------- 2 5.0 1.0 0 3
- 2.701012 2 1 ack 40 ------- 2 5.0 1.0 0 3
3.00000  1  0  5  0  ssthresh_ 0
3.00000  1  0  5  0  ssthresh_ 2
3.00000  1  0  5  0  cwnd_ 2.000 
+ 3 1 2 tcp 1000 ------- 2 1.0 5.0 0 5
- 3 1 2 tcp 1000 ------- 2 1.0 5.0 0 5
+ 3 1 2 tcp 1000 ------- 2 1.0 5.0 1 6
3.00000  1  0  5  0  maxseq_ 1
- 3.000002 1 2 tcp 1000 ------- 2 1.0 5.0 1 6
r 3.045014 0 2 tcp 1000 ------- 1 0.0 4.0 1 4
+ 3.045014 2 3 tcp 1000 ------- 1 0.0 4.0 1 4
- 3.045014 2 3 tcp 1000 ------- 1 0.0 4.0 1 4
r 3.095022 2 3 tcp 1000 ------- 1 0.0 4.0 1 4
+ 3.095022 3 4 tcp 1000 ------- 1 0.0 4.0 1 4
- 3.095022 3 4 tcp 1000 ------- 1 0.0 4.0 1 4
r 3.568012 2 1 ack 40 ------- 2 5.0 1.0 0 3
3.56801  1  0  5  0  ack_ 0
3.56801  1  0  5  0  cwnd_ 2.500 
+ 3.568012 1 2 tcp 1000 ------- 2 1.0 5.0 2 7
- 3.568012 1 2 tcp 1000 ------- 2 1.0 5.0 2 7
3.56801  1  0  5  0  maxseq_ 2
r 3.684024 3 4 tcp 1000 ------- 1 0.0 4.0 1 4
+ 3.684024 4 3 ack 40 ------- 1 4.0 0.0 1 8
- 3.684024 4 3 ack 40 ------- 1 4.0 0.0 1 8
r 3.867002 1 2 tcp 1000 ------- 2 1.0 5.0 0 5
+ 3.867002 2 3 tcp 1000 ------- 2 1.0 5.0 0 5
- 3.867002 2 3 tcp 1000 ------- 2 1.0 5.0 0 5
r 3.867004 1 2 tcp 1000 ------- 2 1.0 5.0 1 6
+ 3.867004 2 3 tcp 1000 ------- 2 1.0 5.0 1 6
- 3.86701 2 3 tcp 1000 ------- 2 1.0 5.0 1 6
r 3.91701 2 3 tcp 1000 ------- 2 1.0 5.0 0 5
+ 3.91701 3 5 tcp 1000 ------- 2 1.0 5.0 0 5
- 3.91701 3 5 tcp 1000 ------- 2 1.0 5.0 0 5
r 3.917018 2 3 tcp 1000 ------- 2 1.0 5.0 1 6
+ 3.917018 3 5 tcp 1000 ------- 2 1.0 5.0 1 6
- 3.917018 3 5 tcp 1000 ------- 2 1.0 5.0 1 6
r 4.273025 4 3 ack 40 ------- 1 4.0 0.0 1 8
+ 4.273025 3 2 ack 40 ------- 1 4.0 0.0 1 8
- 4.273025 3 2 ack 40 ------- 1 4.0 0.0 1 8
r 4.323025 3 2 ack 40 ------- 1 4.0 0.0 1 8
+ 4.323025 2 0 ack 40 ------- 1 4.0 0.0 1 8
- 4.323025 2 0 ack 40 ------- 1 4.0 0.0 1 8
r 4.435014 1 2 tcp 1000 ------- 2 1.0 5.0 2 7
+ 4.435014 2 3 tcp 1000 ------- 2 1.0 5.0 2 7
- 4.435014 2 3 tcp 1000 ------- 2 1.0 5.0 2 7
r 4.485022 2 3 tcp 1000 ------- 2 1.0 5.0 2 7
+ 4.485022 3 5 tcp 1000 ------- 2 1.0 5.0 2 7
- 4.485022 3 5 tcp 1000 ------- 2 1.0 5.0 2 7
r 4.784012 3 5 tcp 1000 ------- 2 1.0 5.0 0 5
+ 4.784012 5 3 ack 40 ------- 2 5.0 1.0 0 9
- 4.784012 5 3 ack 40 ------- 2 5.0 1.0 0 9
r 4.78402 3 5 tcp 1000 ------- 2 1.0 5.0 1 6
+ 4.78402 5 3 ack 40 ------- 2 5.0 1.0 1 10
- 4.78402 5 3 ack 40 ------- 2 5.0 1.0 1 10
r 4.912025 2 0 ack 40 ------- 1 4.0 0.0 1 8
4.91202  0  0  4  0  cwnd_ 2.000 
4.91202  0  0  4  0  ack_ 1
4.91202  0  0  4  0  rtt_ 2.450 
4.91202  0  0  4  0  cwnd_ 3.000 
+ 4.912025 0 2 tcp 1000 ------- 1 0.0 4.0 2 11
- 4.912025 0 2 tcp 1000 ------- 1 0.0 4.0 2 11
4.91202  0  0  4  0  maxseq_ 2
+ 4.912025 0 2 tcp 1000 ------- 1 0.0 4.0 3 12
4.91202  0  0  4  0  maxseq_ 3
+ 4.912025 0 2 tcp 1000 ------- 1 0.0 4.0 4 13
4.91202  0  0  4  0  maxseq_ 4
- 4.912027 0 2 tcp 1000 ------- 1 0.0 4.0 3 12
- 4.912029 0 2 tcp 1000 ------- 1 0.0 4.0 4 13
r 5.352024 3 5 tcp 1000 ------- 2 1.0 5.0 2 7
+ 5.352024 5 3 ack 40 ------- 2 5.0 1.0 2 14
- 5.352024 5 3 ack 40 ------- 2 5.0 1.0 2 14
r 5.501027 0 2 tcp 1000 ------- 1 0.0 4.0 2 11
+ 5.501027 2 3 tcp 1000 ------- 1 0.0 4.0 2 11
- 5.501027 2 3 tcp 1000 ------- 1 0.0 4.0 2 11
r 5.501029 0 2 tcp 1000 ------- 1 0.0 4.0 3 12
+ 5.501029 2 3 tcp 1000 ------- 1 0.0 4.0 3 12
r 5.501031 0 2 tcp 1000 ------- 1 0.0 4.0 4 13
+ 5.501031 2 3 tcp 1000 ------- 1 0.0 4.0 4 13
- 5.501035 2 3 tcp 1000 ------- 1 0.0 4.0 3 12
- 5.501043 2 3 tcp 1000 ------- 1 0.0 4.0 4 13
r 5.551035 2 3 tcp 1000 ------- 1 0.0 4.0 2 11
+ 5.551035 3 4 tcp 1000 ------- 1 0.0 4.0 2 11
- 5.551035 3 4 tcp 1000 ------- 1 0.0 4.0 2 11
r 5.551043 2 3 tcp 1000 ------- 1 0.0 4.0 3 12
+ 5.551043 3 4 tcp 1000 ------- 1 0.0 4.0 3 12
- 5.551043 3 4 tcp 1000 ------- 1 0.0 4.0 3 12
r 5.551051 2 3 tcp 1000 ------- 1 0.0 4.0 4 13
+ 5.551051 3 4 tcp 1000 ------- 1 0.0 4.0 4 13
- 5.551051 3 4 tcp 1000 ------- 1 0.0 4.0 4 13
r 5.651012 5 3 ack 40 ------- 2 5.0 1.0 0 9
+ 5.651012 3 2 ack 40 ------- 2 5.0 1.0 0 9
- 5.651012 3 2 ack 40 ------- 2 5.0 1.0 0 9
r 5.65102 5 3 ack 40 ------- 2 5.0 1.0 1 10
+ 5.65102 3 2 ack 40 ------- 2 5.0 1.0 1 10
- 5.65102 3 2 ack 40 ------- 2 5.0 1.0 1 10
r 5.701012 3 2 ack 40 ------- 2 5.0 1.0 0 9
+ 5.701012 2 1 ack 40 ------- 2 5.0 1.0 0 9
- 5.701012 2 1 ack 40 ------- 2 5.0 1.0 0 9
r 5.70102 3 2 ack 40 ------- 2 5.0 1.0 1 10
+ 5.70102 2 1 ack 40 ------- 2 5.0 1.0 1 10
- 5.70102 2 1 ack 40 ------- 2 5.0 1.0 1 10
r 6.140037 3 4 tcp 1000 ------- 1 0.0 4.0 2 11
+ 6.140037 4 3 ack 40 ------- 1 4.0 0.0 2 15
- 6.140037 4 3 ack 40 ------- 1 4.0 0.0 2 15
r 6.140045 3 4 tcp 1000 ------- 1 0.0 4.0 3 12
+ 6.140045 4 3 ack 40 ------- 1 4.0 0.0 3 16
- 6.140045 4 3 ack 40 ------- 1 4.0 0.0 3 16
r 6.140053 3 4 tcp 1000 ------- 1 0.0 4.0 4 13
+ 6.140053 4 3 ack 40 ------- 1 4.0 0.0 4 17
- 6.140053 4 3 ack 40 ------- 1 4.0 0.0 4 17
r 6.219025 5 3 ack 40 ------- 2 5.0 1.0 2 14
+ 6.219025 3 2 ack 40 ------- 2 5.0 1.0 2 14
- 6.219025 3 2 ack 40 ------- 2 5.0 1.0 2 14
r 6.269025 3 2 ack 40 ------- 2 5.0 1.0 2 14
+ 6.269025 2 1 ack 40 ------- 2 5.0 1.0 2 14
- 6.269025 2 1 ack 40 ------- 2 5.0 1.0 2 14
r 6.568012 2 1 ack 40 ------- 2 5.0 1.0 0 9
r 6.56802 2 1 ack 40 ------- 2 5.0 1.0 1 10
6.56802  1  0  5  0  cwnd_ 2.000 
6.56802  1  0  5  0  ack_ 1
6.56802  1  0  5  0  rtt_ 3.560 
6.56802  1  0  5  0  cwnd_ 2.500 
+ 6.56802 1 2 tcp 1000 ------- 2 1.0 5.0 3 18
- 6.56802 1 2 tcp 1000 ------- 2 1.0 5.0 3 18
6.56802  1  0  5  0  maxseq_ 3
r 6.729037 4 3 ack 40 ------- 1 4.0 0.0 2 15
+ 6.729037 3 2 ack 40 ------- 1 4.0 0.0 2 15
- 6.729037 3 2 ack 40 ------- 1 4.0 0.0 2 15
r 6.729045 4 3 ack 40 ------- 1 4.0 0.0 3 16
+ 6.729045 3 2 ack 40 ------- 1 4.0 0.0 3 16
- 6.729045 3 2 ack 40 ------- 1 4.0 0.0 3 16
r 6.729053 4 3 ack 40 ------- 1 4.0 0.0 4 17
+ 6.729053 3 2 ack 40 ------- 1 4.0 0.0 4 17
- 6.729053 3 2 ack 40 ------- 1 4.0 0.0 4 17
r 6.779037 3 2 ack 40 ------- 1 4.0 0.0 2 15
+ 6.779037 2 0 ack 40 ------- 1 4.0 0.0 2 15
- 6.779037 2 0 ack 40 ------- 1 4.0 0.0 2 15
r 6.779045 3 2 ack 40 ------- 1 4.0 0.0 3 16
+ 6.779045 2 0 ack 40 ------- 1 4.0 0.0 3 16
- 6.779045 2 0 ack 40 ------- 1 4.0 0.0 3 16
r 6.779053 3 2 ack 40 ------- 1 4.0 0.0 4 17
+ 6.779053 2 0 ack 40 ------- 1 4.0 0.0 4 17
- 6.779053 2 0 ack 40 ------- 1 4.0 0.0 4 17
r 7.136025 2 1 ack 40 ------- 2 5.0 1.0 2 14
7.13602  1  0  5  0  ack_ 2
+ 7.136025 1 2 tcp 1000 ------- 2 1.0 5.0 4 19
- 7.136025 1 2 tcp 1000 ------- 2 1.0 5.0 4 19
7.13602  1  0  5  0  maxseq_ 4
r 7.368037 2 0 ack 40 ------- 1 4.0 0.0 2 15
7.36804  0  0  4  0  ack_ 2
7.36804  0  0  4  0  rtt_ 2.460 
+ 7.368037 0 2 tcp 1000 ------- 1 0.0 4.0 5 20
- 7.368037 0 2 tcp 1000 ------- 1 0.0 4.0 5 20
7.36804  0  0  4  0  maxseq_ 5
r 7.368045 2 0 ack 40 ------- 1 4.0 0.0 3 16
7.36805  0  0  4  0  ack_ 3
+ 7.368045 0 2 tcp 1000 ------- 1 0.0 4.0 6 21
- 7.368045 0 2 tcp 1000 ------- 1 0.0 4.0 6 21
7.36805  0  0  4  0  maxseq_ 6
r 7.368053 2 0 ack 40 ------- 1 4.0 0.0 4 17
7.36805  0  0  4  0  ack_ 4
+ 7.368053 0 2 tcp 1000 ------- 1 0.0 4.0 7 22
- 7.368053 0 2 tcp 1000 ------- 1 0.0 4.0 7 22
7.36805  0  0  4  0  maxseq_ 7
r 7.435022 1 2 tcp 1000 ------- 2 1.0 5.0 3 18
+ 7.435022 2 3 tcp 1000 ------- 2 1.0 5.0 3 18
- 7.435022 2 3 tcp 1000 ------- 2 1.0 5.0 3 18
r 7.48503 2 3 tcp 1000 ------- 2 1.0 5.0 3 18
+ 7.48503 3 5 tcp 1000 ------- 2 1.0 5.0 3 18
- 7.48503 3 5 tcp 1000 ------- 2 1.0 5.0 3 18
r 7.957039 0 2 tcp 1000 ------- 1 0.0 4.0 5 20
+ 7.957039 2 3 tcp 1000 ------- 1 0.0 4.0 5 20
- 7.957039 2 3 tcp 1000 ------- 1 0.0 4.0 5 20
r 7.957047 0 2 tcp 1000 ------- 1 0.0 4.0 6 21
+ 7.957047 2 3 tcp 1000 ------- 1 0.0 4.0 6 21
- 7.957047 2 3 tcp 1000 ------- 1 0.0 4.0 6 21
r 7.957055 0 2 tcp 1000 ------- 1 0.0 4.0 7 22
+ 7.957055 2 3 tcp 1000 ------- 1 0.0 4.0 7 22
- 7.957055 2 3 tcp 1000 ------- 1 0.0 4.0 7 22
r 8.003027 1 2 tcp 1000 ------- 2 1.0 5.0 4 19
+ 8.003027 2 3 tcp 1000 ------- 2 1.0 5.0 4 19
- 8.003027 2 3 tcp 1000 ------- 2 1.0 5.0 4 19
r 8.007047 2 3 tcp 1000 ------- 1 0.0 4.0 5 20
+ 8.007047 3 4 tcp 1000 ------- 1 0.0 4.0 5 20
- 8.007047 3 4 tcp 1000 ------- 1 0.0 4.0 5 20
r 8.007055 2 3 tcp 1000 ------- 1 0.0 4.0 6 21
+ 8.007055 3 4 tcp 1000 ------- 1 0.0 4.0 6 21
- 8.007055 3 4 tcp 1000 ------- 1 0.0 4.0 6 21
r 8.007063 2 3 tcp 1000 ------- 1 0.0 4.0 7 22
+ 8.007063 3 4 tcp 1000 ------- 1 0.0 4.0 7 22
- 8.007063 3 4 tcp 1000 ------- 1 0.0 4.0 7 22
r 8.053035 2 3 tcp 1000 ------- 2 1.0 5.0 4 19
+ 8.053035 3 5 tcp 1000 ------- 2 1.0 5.0 4 19
- 8.053035 3 5 tcp 1000 ------- 2 1.0 5.0 4 19
r 8.352032 3 5 tcp 1000 ------- 2 1.0 5.0 3 18
+ 8.352032 5 3 ack 40 ------- 2 5.0 1.0 3 23
- 8.352032 5 3 ack 40 ------- 2 5.0 1.0 3 23
r 8.596049 3 4 tcp 1000 ------- 1 0.0 4.0 5 20
+ 8.596049 4 3 ack 40 ------- 1 4.0 0.0 5 24
- 8.596049 4 3 ack 40 ------- 1 4.0 0.0 5 24
r 8.596057 3 4 tcp 1000 ------- 1 0.0 4.0 6 21
+ 8.596057 4 3 ack 40 ------- 1 4.0 0.0 6 25
- 8.596057 4 3 ack 40 ------- 1 4.0 0.0 6 25
r 8.596065 3 4 tcp 1000 ------- 1 0.0 4.0 7 22
+ 8.596065 4 3 ack 40 ------- 1 4.0 0.0 7 26
- 8.596065 4 3 ack 40 ------- 1 4.0 0.0 7 26
r 8.920037 3 5 tcp 1000 ------- 2 1.0 5.0 4 19
+ 8.920037 5 3 ack 40 ------- 2 5.0 1.0 4 27
- 8.920037 5 3 ack 40 ------- 2 5.0 1.0 4 27
r 9.18505 4 3 ack 40 ------- 1 4.0 0.0 5 24
+ 9.18505 3 2 ack 40 ------- 1 4.0 0.0 5 24
- 9.18505 3 2 ack 40 ------- 1 4.0 0.0 5 24
r 9.185058 4 3 ack 40 ------- 1 4.0 0.0 6 25
+ 9.185058 3 2 ack 40 ------- 1 4.0 0.0 6 25
- 9.185058 3 2 ack 40 ------- 1 4.0 0.0 6 25
r 9.185066 4 3 ack 40 ------- 1 4.0 0.0 7 26
+ 9.185066 3 2 ack 40 ------- 1 4.0 0.0 7 26
- 9.185066 3 2 ack 40 ------- 1 4.0 0.0 7 26
r 9.219033 5 3 ack 40 ------- 2 5.0 1.0 3 23
+ 9.219033 3 2 ack 40 ------- 2 5.0 1.0 3 23
- 9.219033 3 2 ack 40 ------- 2 5.0 1.0 3 23
r 9.23505 3 2 ack 40 ------- 1 4.0 0.0 5 24
+ 9.23505 2 0 ack 40 ------- 1 4.0 0.0 5 24
- 9.23505 2 0 ack 40 ------- 1 4.0 0.0 5 24
r 9.235058 3 2 ack 40 ------- 1 4.0 0.0 6 25
+ 9.235058 2 0 ack 40 ------- 1 4.0 0.0 6 25
- 9.235058 2 0 ack 40 ------- 1 4.0 0.0 6 25
r 9.235066 3 2 ack 40 ------- 1 4.0 0.0 7 26
+ 9.235066 2 0 ack 40 ------- 1 4.0 0.0 7 26
- 9.235066 2 0 ack 40 ------- 1 4.0 0.0 7 26
r 9.269033 3 2 ack 40 ------- 2 5.0 1.0 3 23
+ 9.269033 2 1 ack 40 ------- 2 5.0 1.0 3 23
- 9.269033 2 1 ack 40 ------- 2 5.0 1.0 3 23
r 9.787037 5 3 ack 40 ------- 2 5.0 1.0 4 27
+ 9.787037 3 2 ack 40 ------- 2 5.0 1.0 4 27
- 9.787037 3 2 ack 40 ------- 2 5.0 1.0 4 27
r 9.82405 2 0 ack 40 ------- 1 4.0 0.0 5 24
9.82405  0  0  4  0  ack_ 5
9.82405  0  0  4  0  rtt_ 2.450 
9.82405  0  0  4  0  cwnd_ 4.000 
+ 9.82405 0 2 tcp 1000 ------- 1 0.0 4.0 8 28
- 9.82405 0 2 tcp 1000 ------- 1 0.0 4.0 8 28
9.82405  0  0  4  0  maxseq_ 8
+ 9.82405 0 2 tcp 1000 ------- 1 0.0 4.0 9 29
9.82405  0  0  4  0  maxseq_ 9
- 9.824052 0 2 tcp 1000 ------- 1 0.0 4.0 9 29
r 9.824058 2 0 ack 40 ------- 1 4.0 0.0 6 25
9.82406  0  0  4  0  ack_ 6
9.82406  0  0  4  0  cwnd_ 5.000 
+ 9.824058 0 2 tcp 1000 ------- 1 0.0 4.0 10 30
- 9.824058 0 2 tcp 1000 ------- 1 0.0 4.0 10 30
9.82406  0  0  4  0  maxseq_ 10
+ 9.824058 0 2 tcp 1000 ------- 1 0.0 4.0 11 31
9.82406  0  0  4  0  maxseq_ 11
- 9.82406 0 2 tcp 1000 ------- 1 0.0 4.0 11 31
r 9.824066 2 0 ack 40 ------- 1 4.0 0.0 7 26
9.82407  0  0  4  0  ack_ 7
9.82407  0  0  4  0  cwnd_ 6.000 
+ 9.824066 0 2 tcp 1000 ------- 1 0.0 4.0 12 32
- 9.824066 0 2 tcp 1000 ------- 1 0.0 4.0 12 32
9.82407  0  0  4  0  maxseq_ 12
+ 9.824066 0 2 tcp 1000 ------- 1 0.0 4.0 13 33
9.82407  0  0  4  0  maxseq_ 13
- 9.824068 0 2 tcp 1000 ------- 1 0.0 4.0 13 33
r 9.837037 3 2 ack 40 ------- 2 5.0 1.0 4 27
+ 9.837037 2 1 ack 40 ------- 2 5.0 1.0 4 27
- 9.837037 2 1 ack 40 ------- 2 5.0 1.0 4 27
r 10.136033 2 1 ack 40 ------- 2 5.0 1.0 3 23
10.13603 1  0  5  0  ack_ 3
10.13603 1  0  5  0  rtt_ 3.570 
+ 10.136033 1 2 tcp 1000 ------- 2 1.0 5.0 5 34
- 10.136033 1 2 tcp 1000 ------- 2 1.0 5.0 5 34
10.13603 1  0  5  0  maxseq_ 5
r 10.413052 0 2 tcp 1000 ------- 1 0.0 4.0 8 28
+ 10.413052 2 3 tcp 1000 ------- 1 0.0 4.0 8 28
- 10.413052 2 3 tcp 1000 ------- 1 0.0 4.0 8 28
r 10.413054 0 2 tcp 1000 ------- 1 0.0 4.0 9 29
+ 10.413054 2 3 tcp 1000 ------- 1 0.0 4.0 9 29
- 10.41306 2 3 tcp 1000 ------- 1 0.0 4.0 9 29
r 10.41306 0 2 tcp 1000 ------- 1 0.0 4.0 10 30
+ 10.41306 2 3 tcp 1000 ------- 1 0.0 4.0 10 30
r 10.413062 0 2 tcp 1000 ------- 1 0.0 4.0 11 31
+ 10.413062 2 3 tcp 1000 ------- 1 0.0 4.0 11 31
- 10.413068 2 3 tcp 1000 ------- 1 0.0 4.0 10 30
r 10.413068 0 2 tcp 1000 ------- 1 0.0 4.0 12 32
+ 10.413068 2 3 tcp 1000 ------- 1 0.0 4.0 12 32
r 10.41307 0 2 tcp 1000 ------- 1 0.0 4.0 13 33
+ 10.41307 2 3 tcp 1000 ------- 1 0.0 4.0 13 33
- 10.413076 2 3 tcp 1000 ------- 1 0.0 4.0 11 31
- 10.413084 2 3 tcp 1000 ------- 1 0.0 4.0 12 32
- 10.413092 2 3 tcp 1000 ------- 1 0.0 4.0 13 33
r 10.46306 2 3 tcp 1000 ------- 1 0.0 4.0 8 28
+ 10.46306 3 4 tcp 1000 ------- 1 0.0 4.0 8 28
- 10.46306 3 4 tcp 1000 ------- 1 0.0 4.0 8 28
r 10.463068 2 3 tcp 1000 ------- 1 0.0 4.0 9 29
+ 10.463068 3 4 tcp 1000 ------- 1 0.0 4.0 9 29
- 10.463068 3 4 tcp 1000 ------- 1 0.0 4.0 9 29
r 10.463076 2 3 tcp 1000 ------- 1 0.0 4.0 10 30
+ 10.463076 3 4 tcp 1000 ------- 1 0.0 4.0 10 30
- 10.463076 3 4 tcp 1000 ------- 1 0.0 4.0 10 30
r 10.463084 2 3 tcp 1000 ------- 1 0.0 4.0 11 31
+ 10.463084 3 4 tcp 1000 ------- 1 0.0 4.0 11 31
- 10.463084 3 4 tcp 1000 ------- 1 0.0 4.0 11 31
r 10.463092 2 3 tcp 1000 ------- 1 0.0 4.0 12 32
+ 10.463092 3 4 tcp 1000 ------- 1 0.0 4.0 12 32
- 10.463092 3 4 tcp 1000 ------- 1 0.0 4.0 12 32
r 10.4631 2 3 tcp 1000 ------- 1 0.0 4.0 13 33
+ 10.4631 3 4 tcp 1000 ------- 1 0.0 4.0 13 33
- 10.4631 3 4 tcp 1000 ------- 1 0.0 4.0 13 33
r 10.704037 2 1 ack 40 ------- 2 5.0 1.0 4 27
10.70404 1  0  5  0  ack_ 4
+ 10.704037 1 2 tcp 1000 ------- 2 1.0 5.0 6 35
- 10.704037 1 2 tcp 1000 ------- 2 1.0 5.0 6 35
10.70404 1  0  5  0  maxseq_ 6
r 11.003035 1 2 tcp 1000 ------- 2 1.0 5.0 5 34
+ 11.003035 2 3 tcp 1000 ------- 2 1.0 5.0 5 34
- 11.003035 2 3 tcp 1000 ------- 2 1.0 5.0 5 34
r 11.052062 3 4 tcp 1000 ------- 1 0.0 4.0 8 28
+ 11.052062 4 3 ack 40 ------- 1 4.0 0.0 8 36
- 11.052062 4 3 ack 40 ------- 1 4.0 0.0 8 36
r 11.05207 3 4 tcp 1000 ------- 1 0.0 4.0 9 29
+ 11.05207 4 3 ack 40 ------- 1 4.0 0.0 9 37
- 11.05207 4 3 ack 40 ------- 1 4.0 0.0 9 37
r 11.052078 3 4 tcp 1000 ------- 1 0.0 4.0 10 30
+ 11.052078 4 3 ack 40 ------- 1 4.0 0.0 10 38
- 11.052078 4 3 ack 40 ------- 1 4.0 0.0 10 38
r 11.052086 3 4 tcp 1000 ------- 1 0.0 4.0 11 31
+ 11.052086 4 3 ack 40 ------- 1 4.0 0.0 11 39
- 11.052086 4 3 ack 40 ------- 1 4.0 0.0 11 39
r 11.052094 3 4 tcp 1000 ------- 1 0.0 4.0 12 32
+ 11.052094 4 3 ack 40 ------- 1 4.0 0.0 12 40
- 11.052094 4 3 ack 40 ------- 1 4.0 0.0 12 40
r 11.052102 3 4 tcp 1000 ------- 1 0.0 4.0 13 33
+ 11.052102 4 3 ack 40 ------- 1 4.0 0.0 13 41
- 11.052102 4 3 ack 40 ------- 1 4.0 0.0 13 41
r 11.053043 2 3 tcp 1000 ------- 2 1.0 5.0 5 34
+ 11.053043 3 5 tcp 1000 ------- 2 1.0 5.0 5 34
- 11.053043 3 5 tcp 1000 ------- 2 1.0 5.0 5 34
r 11.571039 1 2 tcp 1000 ------- 2 1.0 5.0 6 35
+ 11.571039 2 3 tcp 1000 ------- 2 1.0 5.0 6 35
- 11.571039 2 3 tcp 1000 ------- 2 1.0 5.0 6 35
r 11.621047 2 3 tcp 1000 ------- 2 1.0 5.0 6 35
+ 11.621047 3 5 tcp 1000 ------- 2 1.0 5.0 6 35
- 11.621047 3 5 tcp 1000 ------- 2 1.0 5.0 6 35
r 11.641062 4 3 ack 40 ------- 1 4.0 0.0 8 36
+ 11.641062 3 2 ack 40 ------- 1 4.0 0.0 8 36
- 11.641062 3 2 ack 40 ------- 1 4.0 0.0 8 36
r 11.64107 4 3 ack 40 ------- 1 4.0 0.0 9 37
+ 11.64107 3 2 ack 40 ------- 1 4.0 0.0 9 37
- 11.64107 3 2 ack 40 ------- 1 4.0 0.0 9 37
r 11.641078 4 3 ack 40 ------- 1 4.0 0.0 10 38
+ 11.641078 3 2 ack 40 ------- 1 4.0 0.0 10 38
- 11.641078 3 2 ack 40 ------- 1 4.0 0.0 10 38
r 11.641086 4 3 ack 40 ------- 1 4.0 0.0 11 39
+ 11.641086 3 2 ack 40 ------- 1 4.0 0.0 11 39
- 11.641086 3 2 ack 40 ------- 1 4.0 0.0 11 39
r 11.641094 4 3 ack 40 ------- 1 4.0 0.0 12 40
+ 11.641094 3 2 ack 40 ------- 1 4.0 0.0 12 40
- 11.641094 3 2 ack 40 ------- 1 4.0 0.0 12 40
r 11.641102 4 3 ack 40 ------- 1 4.0 0.0 13 41
+ 11.641102 3 2 ack 40 ------- 1 4.0 0.0 13 41
- 11.641102 3 2 ack 40 ------- 1 4.0 0.0 13 41
r 11.691062 3 2 ack 40 ------- 1 4.0 0.0 8 36
+ 11.691062 2 0 ack 40 ------- 1 4.0 0.0 8 36
- 11.691062 2 0 ack 40 ------- 1 4.0 0.0 8 36
r 11.69107 3 2 ack 40 ------- 1 4.0 0.0 9 37
+ 11.69107 2 0 ack 40 ------- 1 4.0 0.0 9 37
- 11.69107 2 0 ack 40 ------- 1 4.0 0.0 9 37
r 11.691078 3 2 ack 40 ------- 1 4.0 0.0 10 38
+ 11.691078 2 0 ack 40 ------- 1 4.0 0.0 10 38
- 11.691078 2 0 ack 40 ------- 1 4.0 0.0 10 38
r 11.691086 3 2 ack 40 ------- 1 4.0 0.0 11 39
+ 11.691086 2 0 ack 40 ------- 1 4.0 0.0 11 39
- 11.691086 2 0 ack 40 ------- 1 4.0 0.0 11 39
r 11.691094 3 2 ack 40 ------- 1 4.0 0.0 12 40
+ 11.691094 2 0 ack 40 ------- 1 4.0 0.0 12 40
- 11.691094 2 0 ack 40 ------- 1 4.0 0.0 12 40
r 11.691102 3 2 ack 40 ------- 1 4.0 0.0 13 41
+ 11.691102 2 0 ack 40 ------- 1 4.0 0.0 13 41
- 11.691102 2 0 ack 40 ------- 1 4.0 0.0 13 41
r 11.920045 3 5 tcp 1000 ------- 2 1.0 5.0 5 34
+ 11.920045 5 3 ack 40 ------- 2 5.0 1.0 5 42
- 11.920045 5 3 ack 40 ------- 2 5.0 1.0 5 42
r 12.280062 2 0 ack 40 ------- 1 4.0 0.0 8 36
12.28006 0  0  4  0  ack_ 8
12.28006 0  0  4  0  rtt_ 2.460 
+ 12.280062 0 2 tcp 1000 ------- 1 0.0 4.0 14 43
- 12.280062 0 2 tcp 1000 ------- 1 0.0 4.0 14 43
12.28006 0  0  4  0  maxseq_ 14
r 12.28007 2 0 ack 40 ------- 1 4.0 0.0 9 37
12.28007 0  0  4  0  ack_ 9
+ 12.28007 0 2 tcp 1000 ------- 1 0.0 4.0 15 44
- 12.28007 0 2 tcp 1000 ------- 1 0.0 4.0 15 44
12.28007 0  0  4  0  maxseq_ 15
r 12.280078 2 0 ack 40 ------- 1 4.0 0.0 10 38
12.28008 0  0  4  0  ack_ 10
+ 12.280078 0 2 tcp 1000 ------- 1 0.0 4.0 16 45
- 12.280078 0 2 tcp 1000 ------- 1 0.0 4.0 16 45
12.28008 0  0  4  0  maxseq_ 16
r 12.280086 2 0 ack 40 ------- 1 4.0 0.0 11 39
12.28009 0  0  4  0  ack_ 11
+ 12.280086 0 2 tcp 1000 ------- 1 0.0 4.0 17 46
- 12.280086 0 2 tcp 1000 ------- 1 0.0 4.0 17 46
12.28009 0  0  4  0  maxseq_ 17
r 12.280094 2 0 ack 40 ------- 1 4.0 0.0 12 40
12.28009 0  0  4  0  ack_ 12
+ 12.280094 0 2 tcp 1000 ------- 1 0.0 4.0 18 47
- 12.280094 0 2 tcp 1000 ------- 1 0.0 4.0 18 47
12.28009 0  0  4  0  maxseq_ 18
r 12.280102 2 0 ack 40 ------- 1 4.0 0.0 13 41
12.28010 0  0  4  0  ack_ 13
+ 12.280102 0 2 tcp 1000 ------- 1 0.0 4.0 19 48
- 12.280102 0 2 tcp 1000 ------- 1 0.0 4.0 19 48
12.28010 0  0  4  0  maxseq_ 19
r 12.488049 3 5 tcp 1000 ------- 2 1.0 5.0 6 35
+ 12.488049 5 3 ack 40 ------- 2 5.0 1.0 6 49
- 12.488049 5 3 ack 40 ------- 2 5.0 1.0 6 49
r 12.787045 5 3 ack 40 ------- 2 5.0 1.0 5 42
+ 12.787045 3 2 ack 40 ------- 2 5.0 1.0 5 42
- 12.787045 3 2 ack 40 ------- 2 5.0 1.0 5 42
r 12.837045 3 2 ack 40 ------- 2 5.0 1.0 5 42
+ 12.837045 2 1 ack 40 ------- 2 5.0 1.0 5 42
- 12.837045 2 1 ack 40 ------- 2 5.0 1.0 5 42
r 12.869064 0 2 tcp 1000 ------- 1 0.0 4.0 14 43
+ 12.869064 2 3 tcp 1000 ------- 1 0.0 4.0 14 43
- 12.869064 2 3 tcp 1000 ------- 1 0.0 4.0 14 43
r 12.869072 0 2 tcp 1000 ------- 1 0.0 4.0 15 44
+ 12.869072 2 3 tcp 1000 ------- 1 0.0 4.0 15 44
- 12.869072 2 3 tcp 1000 ------- 1 0.0 4.0 15 44
r 12.86908 0 2 tcp 1000 ------- 1 0.0 4.0 16 45
+ 12.86908 2 3 tcp 1000 ------- 1 0.0 4.0 16 45
- 12.86908 2 3 tcp 1000 ------- 1 0.0 4.0 16 45
r 12.869088 0 2 tcp 1000 ------- 1 0.0 4.0 17 46
+ 12.869088 2 3 tcp 1000 ------- 1 0.0 4.0 17 46
- 12.869088 2 3 tcp 1000 ------- 1 0.0 4.0 17 46
r 12.869096 0 2 tcp 1000 ------- 1 0.0 4.0 18 47
+ 12.869096 2 3 tcp 1000 ------- 1 0.0 4.0 18 47
- 12.869096 2 3 tcp 1000 ------- 1 0.0 4.0 18 47
r 12.869104 0 2 tcp 1000 ------- 1 0.0 4.0 19 48
+ 12.869104 2 3 tcp 1000 ------- 1 0.0 4.0 19 48
- 12.869104 2 3 tcp 1000 ------- 1 0.0 4.0 19 48
r 12.919072 2 3 tcp 1000 ------- 1 0.0 4.0 14 43
+ 12.919072 3 4 tcp 1000 ------- 1 0.0 4.0 14 43
- 12.919072 3 4 tcp 1000 ------- 1 0.0 4.0 14 43
r 12.91908 2 3 tcp 1000 ------- 1 0.0 4.0 15 44
+ 12.91908 3 4 tcp 1000 ------- 1 0.0 4.0 15 44
- 12.91908 3 4 tcp 1000 ------- 1 0.0 4.0 15 44
r 12.919088 2 3 tcp 1000 ------- 1 0.0 4.0 16 45
+ 12.919088 3 4 tcp 1000 ------- 1 0.0 4.0 16 45
- 12.919088 3 4 tcp 1000 ------- 1 0.0 4.0 16 45
r 12.919096 2 3 tcp 1000 ------- 1 0.0 4.0 17 46
+ 12.919096 3 4 tcp 1000 ------- 1 0.0 4.0 17 46
- 12.919096 3 4 tcp 1000 ------- 1 0.0 4.0 17 46
r 12.919104 2 3 tcp 1000 ------- 1 0.0 4.0 18 47
+ 12.919104 3 4 tcp 1000 ------- 1 0.0 4.0 18 47
- 12.919104 3 4 tcp 1000 ------- 1 0.0 4.0 18 47
r 12.919112 2 3 tcp 1000 ------- 1 0.0 4.0 19 48
+ 12.919112 3 4 tcp 1000 ------- 1 0.0 4.0 19 48
- 12.919112 3 4 tcp 1000 ------- 1 0.0 4.0 19 48
r 13.35505 5 3 ack 40 ------- 2 5.0 1.0 6 49
+ 13.35505 3 2 ack 40 ------- 2 5.0 1.0 6 49
- 13.35505 3 2 ack 40 ------- 2 5.0 1.0 6 49
r 13.40505 3 2 ack 40 ------- 2 5.0 1.0 6 49
+ 13.40505 2 1 ack 40 ------- 2 5.0 1.0 6 49
- 13.40505 2 1 ack 40 ------- 2 5.0 1.0 6 49
r 13.508074 3 4 tcp 1000 ------- 1 0.0 4.0 14 43
+ 13.508074 4 3 ack 40 ------- 1 4.0 0.0 14 50
- 13.508074 4 3 ack 40 ------- 1 4.0 0.0 14 50
r 13.508082 3 4 tcp 1000 ------- 1 0.0 4.0 15 44
+ 13.508082 4 3 ack 40 ------- 1 4.0 0.0 15 51
- 13.508082 4 3 ack 40 ------- 1 4.0 0.0 15 51
r 13.50809 3 4 tcp 1000 ------- 1 0.0 4.0 16 45
+ 13.50809 4 3 ack 40 ------- 1 4.0 0.0 16 52
- 13.50809 4 3 ack 40 ------- 1 4.0 0.0 16 52
r 13.508098 3 4 tcp 1000 ------- 1 0.0 4.0 17 46
+ 13.508098 4 3 ack 40 ------- 1 4.0 0.0 17 53
- 13.508098 4 3 ack 40 ------- 1 4.0 0.0 17 53
r 13.508106 3 4 tcp 1000 ------- 1 0.0 4.0 18 47
+ 13.508106 4 3 ack 40 ------- 1 4.0 0.0 18 54
- 13.508106 4 3 ack 40 ------- 1 4.0 0.0 18 54
r 13.508114 3 4 tcp 1000 ------- 1 0.0 4.0 19 48
+ 13.508114 4 3 ack 40 ------- 1 4.0 0.0 19 55
- 13.508114 4 3 ack 40 ------- 1 4.0 0.0 19 55
r 13.704045 2 1 ack 40 ------- 2 5.0 1.0 5 42
13.70405 1  0  5  0  ack_ 5
+ 13.704045 1 2 tcp 1000 ------- 2 1.0 5.0 7 56
- 13.704045 1 2 tcp 1000 ------- 2 1.0 5.0 7 56
13.70405 1  0  5  0  maxseq_ 7
r 14.097074 4 3 ack 40 ------- 1 4.0 0.0 14 50
+ 14.097074 3 2 ack 40 ------- 1 4.0 0.0 14 50
- 14.097074 3 2 ack 40 ------- 1 4.0 0.0 14 50
r 14.097082 4 3 ack 40 ------- 1 4.0 0.0 15 51
+ 14.097082 3 2 ack 40 ------- 1 4.0 0.0 15 51
- 14.097082 3 2 ack 40 ------- 1 4.0 0.0 15 51
r 14.09709 4 3 ack 40 ------- 1 4.0 0.0 16 52
+ 14.09709 3 2 ack 40 ------- 1 4.0 0.0 16 52
- 14.09709 3 2 ack 40 ------- 1 4.0 0.0 16 52
r 14.097098 4 3 ack 40 ------- 1 4.0 0.0 17 53
+ 14.097098 3 2 ack 40 ------- 1 4.0 0.0 17 53
- 14.097098 3 2 ack 40 ------- 1 4.0 0.0 17 53
r 14.097106 4 3 ack 40 ------- 1 4.0 0.0 18 54
+ 14.097106 3 2 ack 40 ------- 1 4.0 0.0 18 54
- 14.097106 3 2 ack 40 ------- 1 4.0 0.0 18 54
r 14.097114 4 3 ack 40 ------- 1 4.0 0.0 19 55
+ 14.097114 3 2 ack 40 ------- 1 4.0 0.0 19 55
- 14.097114 3 2 ack 40 ------- 1 4.0 0.0 19 55
r 14.147075 3 2 ack 40 ------- 1 4.0 0.0 14 50
+ 14.147075 2 0 ack 40 ------- 1 4.0 0.0 14 50
- 14.147075 2 0 ack 40 ------- 1 4.0 0.0 14 50
r 14.147083 3 2 ack 40 ------- 1 4.0 0.0 15 51
+ 14.147083 2 0 ack 40 ------- 1 4.0 0.0 15 51
- 14.147083 2 0 ack 40 ------- 1 4.0 0.0 15 51
r 14.147091 3 2 ack 40 ------- 1 4.0 0.0 16 52
+ 14.147091 2 0 ack 40 ------- 1 4.0 0.0 16 52
- 14.147091 2 0 ack 40 ------- 1 4.0 0.0 16 52
r 14.147099 3 2 ack 40 ------- 1 4.0 0.0 17 53
+ 14.147099 2 0 ack 40 ------- 1 4.0 0.0 17 53
- 14.147099 2 0 ack 40 ------- 1 4.0 0.0 17 53
r 14.147107 3 2 ack 40 ------- 1 4.0 0.0 18 54
+ 14.147107 2 0 ack 40 ------- 1 4.0 0.0 18 54
- 14.147107 2 0 ack 40 ------- 1 4.0 0.0 18 54
r 14.147115 3 2 ack 40 ------- 1 4.0 0.0 19 55
+ 14.147115 2 0 ack 40 ------- 1 4.0 0.0 19 55
- 14.147115 2 0 ack 40 ------- 1 4.0 0.0 19 55
r 14.27205 2 1 ack 40 ------- 2 5.0 1.0 6 49
14.27205 1  0  5  0  ack_ 6
+ 14.27205 1 2 tcp 1000 ------- 2 1.0 5.0 8 57
- 14.27205 1 2 tcp 1000 ------- 2 1.0 5.0 8 57
14.27205 1  0  5  0  maxseq_ 8
r 14.571047 1 2 tcp 1000 ------- 2 1.0 5.0 7 56
+ 14.571047 2 3 tcp 1000 ------- 2 1.0 5.0 7 56
- 14.571047 2 3 tcp 1000 ------- 2 1.0 5.0 7 56
r 14.621055 2 3 tcp 1000 ------- 2 1.0 5.0 7 56
+ 14.621055 3 5 tcp 1000 ------- 2 1.0 5.0 7 56
- 14.621055 3 5 tcp 1000 ------- 2 1.0 5.0 7 56
r 14.736075 2 0 ack 40 ------- 1 4.0 0.0 14 50
14.73607 0  0  4  0  ack_ 14
14.73607 0  0  4  0  cwnd_ 7.000 
+ 14.736075 0 2 tcp 1000 ------- 1 0.0 4.0 20 58
- 14.736075 0 2 tcp 1000 ------- 1 0.0 4.0 20 58
14.73607 0  0  4  0  maxseq_ 20
+ 14.736075 0 2 tcp 1000 ------- 1 0.0 4.0 21 59
14.73607 0  0  4  0  maxseq_ 21
- 14.736077 0 2 tcp 1000 ------- 1 0.0 4.0 21 59
r 14.736083 2 0 ack 40 ------- 1 4.0 0.0 15 51
14.73608 0  0  4  0  ack_ 15
14.73608 0  0  4  0  cwnd_ 8.000 
+ 14.736083 0 2 tcp 1000 ------- 1 0.0 4.0 22 60
- 14.736083 0 2 tcp 1000 ------- 1 0.0 4.0 22 60
14.73608 0  0  4  0  maxseq_ 22
+ 14.736083 0 2 tcp 1000 ------- 1 0.0 4.0 23 61
14.73608 0  0  4  0  maxseq_ 23
- 14.736085 0 2 tcp 1000 ------- 1 0.0 4.0 23 61
r 14.736091 2 0 ack 40 ------- 1 4.0 0.0 16 52
14.73609 0  0  4  0  ack_ 16
14.73609 0  0  4  0  cwnd_ 9.000 
+ 14.736091 0 2 tcp 1000 ------- 1 0.0 4.0 24 62
- 14.736091 0 2 tcp 1000 ------- 1 0.0 4.0 24 62
14.73609 0  0  4  0  maxseq_ 24
+ 14.736091 0 2 tcp 1000 ------- 1 0.0 4.0 25 63
14.73609 0  0  4  0  maxseq_ 25
- 14.736093 0 2 tcp 1000 ------- 1 0.0 4.0 25 63
r 14.736099 2 0 ack 40 ------- 1 4.0 0.0 17 53
14.73610 0  0  4  0  ack_ 17
14.73610 0  0  4  0  cwnd_ 10.000
+ 14.736099 0 2 tcp 1000 ------- 1 0.0 4.0 26 64
- 14.736099 0 2 tcp 1000 ------- 1 0.0 4.0 26 64
14.73610 0  0  4  0  maxseq_ 26
+ 14.736099 0 2 tcp 1000 ------- 1 0.0 4.0 27 65
14.73610 0  0  4  0  maxseq_ 27
- 14.736101 0 2 tcp 1000 ------- 1 0.0 4.0 27 65
r 14.736107 2 0 ack 40 ------- 1 4.0 0.0 18 54
14.73611 0  0  4  0  ack_ 18
14.73611 0  0  4  0  cwnd_ 11.000
+ 14.736107 0 2 tcp 1000 ------- 1 0.0 4.0 28 66
- 14.736107 0 2 tcp 1000 ------- 1 0.0 4.0 28 66
14.73611 0  0  4  0  maxseq_ 28
+ 14.736107 0 2 tcp 1000 ------- 1 0.0 4.0 29 67
14.73611 0  0  4  0  maxseq_ 29
- 14.736109 0 2 tcp 1000 ------- 1 0.0 4.0 29 67
r 14.736115 2 0 ack 40 ------- 1 4.0 0.0 19 55
14.73611 0  0  4  0  ack_ 19
14.73611 0  0  4  0  cwnd_ 12.000
+ 14.736115 0 2 tcp 1000 ------- 1 0.0 4.0 30 68
- 14.736115 0 2 tcp 1000 ------- 1 0.0 4.0 30 68
14.73611 0  0  4  0  maxseq_ 30
+ 14.736115 0 2 tcp 1000 ------- 1 0.0 4.0 31 69
14.73611 0  0  4  0  maxseq_ 31
- 14.736117 0 2 tcp 1000 ------- 1 0.0 4.0 31 69
r 15.139052 1 2 tcp 1000 ------- 2 1.0 5.0 8 57
+ 15.139052 2 3 tcp 1000 ------- 2 1.0 5.0 8 57
- 15.139052 2 3 tcp 1000 ------- 2 1.0 5.0 8 57
r 15.18906 2 3 tcp 1000 ------- 2 1.0 5.0 8 57
+ 15.18906 3 5 tcp 1000 ------- 2 1.0 5.0 8 57
- 15.18906 3 5 tcp 1000 ------- 2 1.0 5.0 8 57
r 15.325077 0 2 tcp 1000 ------- 1 0.0 4.0 20 58
+ 15.325077 2 3 tcp 1000 ------- 1 0.0 4.0 20 58
- 15.325077 2 3 tcp 1000 ------- 1 0.0 4.0 20 58
r 15.325079 0 2 tcp 1000 ------- 1 0.0 4.0 21 59
+ 15.325079 2 3 tcp 1000 ------- 1 0.0 4.0 21 59
r 15.325085 0 2 tcp 1000 ------- 1 0.0 4.0 22 60
+ 15.325085 2 3 tcp 1000 ------- 1 0.0 4.0 22 60
- 15.325085 2 3 tcp 1000 ------- 1 0.0 4.0 21 59
r 15.325087 0 2 tcp 1000 ------- 1 0.0 4.0 23 61
+ 15.325087 2 3 tcp 1000 ------- 1 0.0 4.0 23 61
r 15.325093 0 2 tcp 1000 ------- 1 0.0 4.0 24 62
+ 15.325093 2 3 tcp 1000 ------- 1 0.0 4.0 24 62
- 15.325093 2 3 tcp 1000 ------- 1 0.0 4.0 22 60
r 15.325095 0 2 tcp 1000 ------- 1 0.0 4.0 25 63
+ 15.325095 2 3 tcp 1000 ------- 1 0.0 4.0 25 63
r 15.325101 0 2 tcp 1000 ------- 1 0.0 4.0 26 64
+ 15.325101 2 3 tcp 1000 ------- 1 0.0 4.0 26 64
- 15.325101 2 3 tcp 1000 ------- 1 0.0 4.0 23 61
r 15.325103 0 2 tcp 1000 ------- 1 0.0 4.0 27 65
+ 15.325103 2 3 tcp 1000 ------- 1 0.0 4.0 27 65
r 15.325109 0 2 tcp 1000 ------- 1 0.0 4.0 28 66
+ 15.325109 2 3 tcp 1000 ------- 1 0.0 4.0 28 66
- 15.325109 2 3 tcp 1000 ------- 1 0.0 4.0 24 62
r 15.325111 0 2 tcp 1000 ------- 1 0.0 4.0 29 67
+ 15.325111 2 3 tcp 1000 ------- 1 0.0 4.0 29 67
r 15.325117 0 2 tcp 1000 ------- 1 0.0 4.0 30 68
+ 15.325117 2 3 tcp 1000 ------- 1 0.0 4.0 30 68
- 15.325117 2 3 tcp 1000 ------- 1 0.0 4.0 25 63