V -t * -v 1.0a5 -a 0
A -t * -n 1 -p 0 -o 0x7fffffff -c 30 -a 1
A -t * -h 1 -m 1073741823 -s 0
c -t * -i 1 -n Blue
c -t * -i 2 -n Red
n -t * -a 4 -s 4 -S UP -v circle -c black -i black
n -t * -a 0 -s 0 -S UP -v circle -c black -i black
n -t * -a 5 -s 5 -S UP -v circle -c black -i black
n -t * -a 1 -s 1 -S UP -v circle -c black -i black
n -t * -a 2 -s 2 -S UP -v circle -c black -i black
n -t * -a 3 -s 3 -S UP -v circle -c black -i black
l -t * -s 0 -d 2 -S UP -r 4000000000 -D 0.57799999999999996 -c black -o right-down
l -t * -s 1 -d 2 -S UP -r 4000000000 -D 0.85600000000000009 -c black -o right-up
l -t * -s 2 -d 3 -S UP -r 1000000000 -D 0.050000000000000003 -c black -o right
l -t * -s 3 -d 4 -S UP -r 4000000000 -D 0.57799999999999996 -c black -o right-up
l -t * -s 3 -d 5 -S UP -r 4000000000 -D 0.85600000000000009 -c black -o right-down
+ -t 0 -s 1 -d 2 -p tcp -e 1000 -c 2 -i 0 -a 2 -x {1.0 5.0 0 ------- null}
- -t 0 -s 1 -d 2 -p tcp -e 1000 -c 2 -i 0 -a 2 -x {1.0 5.0 0 ------- null}
h -t 0 -s 1 -d 2 -p tcp -e 1000 -c 2 -i 0 -a 2 -x {1.0 5.0 -1 ------- null}
+ -t 0 -s 0 -d 2 -p tcp -e 1000 -c 1 -i 1 -a 1 -x {0.0 4.0 0 ------- null}
- -t 0 -s 0 -d 2 -p tcp -e 1000 -c 1 -i 1 -a 1 -x {0.0 4.0 0 ------- null}
h -t 0 -s 0 -d 2 -p tcp -e 1000 -c 1 -i 1 -a 1 -x {0.0 4.0 -1 ------- null}
r -t 0.578002 -s 0 -d 2 -p tcp -e 1000 -c 1 -i 1 -a 1 -x {0.0 4.0 0 ------- null}
+ -t 0.578002 -s 2 -d 3 -p tcp -e 1000 -c 1 -i 1 -a 1 -x {0.0 4.0 0 ------- null}
- -t 0.578002 -s 2 -d 3 -p tcp -e 1000 -c 1 -i 1 -a 1 -x {0.0 4.0 0 ------- null}
h -t 0.578002 -s 2 -d 3 -p tcp -e 1000 -c 1 -i 1 -a 1 -x {0.0 4.0 -1 ------- null}
r -t 0.62801 -s 2 -d 3 -p tcp -e 1000 -c 1 -i 1 -a 1 -x {0.0 4.0 0 ------- null}
+ -t 0.62801 -s 3 -d 4 -p tcp -e 1000 -c 1 -i 1 -a 1 -x {0.0 4.0 0 ------- null}
- -t 0.62801 -s 3 -d 4 -p tcp -e 1000 -c 1 -i 1 -a 1 -x {0.0 4.0 0 ------- null}
h -t 0.62801 -s 3 -d 4 -p tcp -e 1000 -c 1 -i 1 -a 1 -x {0.0 4.0 -1 ------- null}
r -t 0.856002 -s 1 -d 2 -p tcp -e 1000 -c 2 -i 0 -a 2 -x {1.0 5.0 0 ------- null}
+ -t 0.856002 -s 2 -d 3 -p tcp -e 1000 -c 2 -i 0 -a 2 -x {1.0 5.0 0 ------- null}
- -t 0.856002 -s 2 -d 3 -p tcp -e 1000 -c 2 -i 0 -a 2 -x {1.0 5.0 0 ------- null}
h -t 0.856002 -s 2 -d 3 -p tcp -e 1000 -c 2 -i 0 -a 2 -x {1.0 5.0 -1 ------- null}
r -t 0.90601 -s 2 -d 3 -p tcp -e 1000 -c 2 -i 0 -a 2 -x {1.0 5.0 0 ------- null}
+ -t 0.90601 -s 3 -d 5 -p tcp -e 1000 -c 2 -i 0 -a 2 -x {1.0 5.0 0 ------- null}
- -t 0.90601 -s 3 -d 5 -p tcp -e 1000 -c 2 -i 0 -a 2 -x {1.0 5.0 0 ------- null}
h -t 0.90601 -s 3 -d 5 -p tcp -e 1000 -c 2 -i 0 -a 2 -x {1.0 5.0 -1 ------- null}
r -t 1.206012 -s 3 -d 4 -p tcp -e 1000 -c 1 -i 1 -a 1 -x {0.0 4.0 0 ------- null}
+ -t 1.206012 -s 4 -d 3 -p ack -e 40 -c 1 -i 2 -a 1 -x {4.0 0.0 0 ------- null}
- -t 1.206012 -s 4 -d 3 -p ack -e 40 -c 1 -i 2 -a 1 -x {4.0 0.0 0 ------- null}
h -t 1.206012 -s 4 -d 3 -p ack -e 40 -c 1 -i 2 -a 1 -x {4.0 0.0 -1 ------- null}
r -t 1.762012 -s 3 -d 5 -p tcp -e 1000 -c 2 -i 0 -a 2 -x {1.0 5.0 0 ------- null}
+ -t 1.762012 -s 5 -d 3 -p ack -e 40 -c 2 -i 3 -a 2 -x {5.0 1.0 0 ------- null}
- -t 1.762012 -s 5 -d 3 -p ack -e 40 -c 2 -i 3 -a 2 -x {5.0 1.0 0 ------- null}
h -t 1.762012 -s 5 -d 3 -p ack -e 40 -c 2 -i 3 -a 2 -x {5.0 1.0 -1 ------- null}
r -t 1.78401208 -s 4 -d 3 -p ack -e 40 -c 1 -i 2 -a 1 -x {4.0 0.0 0 ------- null}
+ -t 1.78401208 -s 3 -d 2 -p ack -e 40 -c 1 -i 2 -a 1 -x {4.0 0.0 0 ------- null}
- -t 1.78401208 -s 3 -d 2 -p ack -e 40 -c 1 -i 2 -a 1 -x {4.0 0.0 0 ------- null}
h -t 1.78401208 -s 3 -d 2 -p ack -e 40 -c 1 -i 2 -a 1 -x {4.0 0.0 -1 ------- null}
r -t 1.8340124 -s 3 -d 2 -p ack -e 40 -c 1 -i 2 -a 1 -x {4.0 0.0 0 ------- null}
+ -t 1.8340124 -s 2 -d 0 -p ack -e 40 -c 1 -i 2 -a 1 -x {4.0 0.0 0 ------- null}
- -t 1.8340124 -s 2 -d 0 -p ack -e 40 -c 1 -i 2 -a 1 -x {4.0 0.0 0 ------- null}
h -t 1.8340124 -s 2 -d 0 -p ack -e 40 -c 1 -i 2 -a 1 -x {4.0 0.0 -1 ------- null}
r -t 2.41201248 -s 2 -d 0 -p ack -e 40 -c 1 -i 2 -a 1 -x {4.0 0.0 0 ------- null}
+ -t 2.41201248 -s 0 -d 2 -p tcp -e 1000 -c 1 -i 4 -a 1 -x {0.0 4.0 1 ------- null}
- -t 2.41201248 -s 0 -d 2 -p tcp -e 1000 -c 1 -i 4 -a 1 -x {0.0 4.0 1 ------- null}
h -t 2.41201248 -s 0 -d 2 -p tcp -e 1000 -c 1 -i 4 -a 1 -x {0.0 4.0 -1 ------- null}
r -t 2.61801208 -s 5 -d 3 -p ack -e 40 -c 2 -i 3 -a 2 -x {5.0 1.0 0 ------- null}
+ -t 2.61801208 -s 3 -d 2 -p ack -e 40 -c 2 -i 3 -a 2 -x {5.0 1.0 0 ------- null}
- -t 2.61801208 -s 3 -d 2 -p ack -e 40 -c 2 -i 3 -a 2 -x {5.0 1.0 0 ------- null}
h -t 2.61801208 -s 3 -d 2 -p ack -e 40 -c 2 -i 3 -a 2 -x {5.0 1.0 -1 ------- null}
r -t 2.6680124 -s 3 -d 2 -p ack -e 40 -c 2 -i 3 -a 2 -x {5.0 1.0 0 ------- null}
+ -t 2.6680124 -s 2 -d 1 -p ack -e 40 -c 2 -i 3 -a 2 -x {5.0 1.0 0 ------- null}
- -t 2.6680124 -s 2 -d 1 -p ack -e 40 -c 2 -i 3 -a 2 -x {5.0 1.0 0 ------- null}
h -t 2.6680124 -s 2 -d 1 -p ack -e 40 -c 2 -i 3 -a 2 -x {5.0 1.0 -1 ------- null}
r -t 2.99001448 -s 0 -d 2 -p tcp -e 1000 -c 1 -i 4 -a 1 -x {0.0 4.0 1 ------- null}
+ -t 2.99001448 -s 2 -d 3 -p tcp -e 1000 -c 1 -i 4 -a 1 -x {0.0 4.0 1 ------- null}
- -t 2.99001448 -s 2 -d 3 -p tcp -e 1000 -c 1 -i 4 -a 1 -x {0.0 4.0 1 ------- null}
h -t 2.99001448 -s 2 -d 3 -p tcp -e 1000 -c 1 -i 4 -a 1 -x {0.0 4.0 -1 ------- null}
+ -t 3 -s 1 -d 2 -p tcp -e 1000 -c 2 -i 5 -a 2 -x {1.0 5.0 0 ------- null}
- -t 3 -s 1 -d 2 -p tcp -e 1000 -c 2 -i 5 -a 2 -x {1.0 5.0 0 ------- null}
h -t 3 -s 1 -d 2 -p tcp -e 1000 -c 2 -i 5 -a 2 -x {1.0 5.0 -1 ------- null}
+ -t 3 -s 1 -d 2 -p tcp -e 1000 -c 2 -i 6 -a 2 -x {1.0 5.0 1 ------- null}
- -t 3.000002 -s 1 -d 2 -p tcp -e 1000 -c 2 -i 6 -a 2 -x {1.0 5.0 1 ------- null}
h -t 3.000002 -s 1 -d 2 -p tcp -e 1000 -c 2 -i 6 -a 2 -x {1.0 5.0 -1 ------- null}
r -t 3.04002248 -s 2 -d 3 -p tcp -e 1000 -c 1 -i 4 -a 1 -x {0.0 4.0 1 ------- null}
+ -t 3.04002248 -s 3 -d 4 -p tcp -e 1000 -c 1 -i 4 -a 1 -x {0.0 4.0 1 ------- null}
- -t 3.04002248 -s 3 -d 4 -p tcp -e 1000 -c 1 -i 4 -a 1 -x {0.0 4.0 1 ------- null}
h -t 3.04002248 -s 3 -d 4 -p tcp -e 1000 -c 1 -i 4 -a 1 -x {0.0 4.0 -1 ------- null}
r -t 3.52401248 -s 2 -d 1 -p ack -e 40 -c 2 -i 3 -a 2 -x {5.0 1.0 0 ------- null}
+ -t 3.52401248 -s 1 -d 2 -p tcp -e 1000 -c 2 -i 7 -a 2 -x {1.0 5.0 2 ------- null}
- -t 3.52401248 -s 1 -d 2 -p tcp -e 1000 -c 2 -i 7 -a 2 -x {1.0 5.0 2 ------- null}
h -t 3.52401248 -s 1 -d 2 -p tcp -e 1000 -c 2 -i 7 -a 2 -x {1.0 5.0 -1 ------- null}
r -t 3.61802448 -s 3 -d 4 -p tcp -e 1000 -c 1 -i 4 -a 1 -x {0.0 4.0 1 ------- null}
+ -t 3.61802448 -s 4 -d 3 -p ack -e 40 -c 1 -i 8 -a 1 -x {4.0 0.0 1 ------- null}
- -t 3.61802448 -s 4 -d 3 -p ack -e 40 -c 1 -i 8 -a 1 -x {4.0 0.0 1 ------- null}
h -t 3.61802448 -s 4 -d 3 -p ack -e 40 -c 1 -i 8 -a 1 -x {4.0 0.0 -1 ------- null}
r -t 3.856002 -s 1 -d 2 -p tcp -e 1000 -c 2 -i 5 -a 2 -x {1.0 5.0 0 ------- null}
+ -t 3.856002 -s 2 -d 3 -p tcp -e 1000 -c 2 -i 5 -a 2 -x {1.0 5.0 0 ------- null}
- -t 3.856002 -s 2 -d 3 -p tcp -e 1000 -c 2 -i 5 -a 2 -x {1.0 5.0 0 ------- null}
h -t 3.856002 -s 2 -d 3 -p tcp -e 1000 -c 2 -i 5 -a 2 -x {1.0 5.0 -1 ------- null}
r -t 3.856004 -s 1 -d 2 -p tcp -e 1000 -c 2 -i 6 -a 2 -x {1.0 5.0 1 ------- null}
+ -t 3.856004 -s 2 -d 3 -p tcp -e 1000 -c 2 -i 6 -a 2 -x {1.0 5.0 1 ------- null}
- -t 3.85601 -s 2 -d 3 -p tcp -e 1000 -c 2 -i 6 -a 2 -x {1.0 5.0 1 ------- null}
h -t 3.85601 -s 2 -d 3 -p tcp -e 1000 -c 2 -i 6 -a 2 -x {1.0 5.0 -1 ------- null}
r -t 3.90601 -s 2 -d 3 -p tcp -e 1000 -c 2 -i 5 -a 2 -x {1.0 5.0 0 ------- null}
+ -t 3.90601 -s 3 -d 5 -p tcp -e 1000 -c 2 -i 5 -a 2 -x {1.0 5.0 0 ------- null}
- -t 3.90601 -s 3 -d 5 -p tcp -e 1000 -c 2 -i 5 -a 2 -x {1.0 5.0 0 ------- null}
h -t 3.90601 -s 3 -d 5 -p tcp -e 1000 -c 2 -i 5 -a 2 -x {1.0 5.0 -1 ------- null}
r -t 3.906018 -s 2 -d 3 -p tcp -e 1000 -c 2 -i 6 -a 2 -x {1.0 5.0 1 ------- null}
+ -t 3.906018 -s 3 -d 5 -p tcp -e 1000 -c 2 -i 6 -a 2 -x {1.0 5.0 1 ------- null}
- -t 3.906018 -s 3 -d 5 -p tcp -e 1000 -c 2 -i 6 -a 2 -x {1.0 5.0 1 ------- null}
h -t 3.906018 -s 3 -d 5 -p tcp -e 1000 -c 2 -i 6 -a 2 -x {1.0 5.0 -1 ------- null}
r -t 4.19602456 -s 4 -d 3 -p ack -e 40 -c 1 -i 8 -a 1 -x {4.0 0.0 1 ------- null}
+ -t 4.19602456 -s 3 -d 2 -p ack -e 40 -c 1 -i 8 -a 1 -x {4.0 0.0 1 ------- null}
- -t 4.19602456 -s 3 -d 2 -p ack -e 40 -c 1 -i 8 -a 1 -x {4.0 0.0 1 ------- null}
h -t 4.19602456 -s 3 -d 2 -p ack -e 40 -c 1 -i 8 -a 1 -x {4.0 0.0 -1 ------- null}
r -t 4.24602488 -s 3 -d 2 -p ack -e 40 -c 1 -i 8 -a 1 -x {4.0 0.0 1 ------- null}
+ -t 4.24602488 -s 2 -d 0 -p ack -e 40 -c 1 -i 8 -a 1 -x {4.0 0.0 1 ------- null}
- -t 4.24602488 -s 2 -d 0 -p ack -e 40 -c 1 -i 8 -a 1 -x {4.0 0.0 1 ------- null}
h -t 4.24602488 -s 2 -d 0 -p ack -e 40 -c 1 -i 8 -a 1 -x {4.0 0.0 -1 ------- null}
r -t 4.38001448 -s 1 -d 2 -p tcp -e 1000 -c 2 -i 7 -a 2 -x {1.0 5.0 2 ------- null}
+ -t 4.38001448 -s 2 -d 3 -p tcp -e 1000 -c 2 -i 7 -a 2 -x {1.0 5.0 2 ------- null}
- -t 4.38001448 -s 2 -d 3 -p tcp -e 1000 -c 2 -i 7 -a 2 -x {1.0 5.0 2 ------- null}
h -t 4.38001448 -s 2 -d 3 -p tcp -e 1000 -c 2 -i 7 -a 2 -x {1.0 5.0 -1 ------- null}
r -t 4.43002248 -s 2 -d 3 -p tcp -e 1000 -c 2 -i 7 -a 2 -x {1.0 5.0 2 ------- null}
+ -t 4.43002248 -s 3 -d 5 -p tcp -e 1000 -c 2 -i 7 -a 2 -x {1.0 5.0 2 ------- null}
- -t 4.43002248 -s 3 -d 5 -p tcp -e 1000 -c 2 -i 7 -a 2 -x {1.0 5.0 2 ------- null}
h -t 4.43002248 -s 3 -d 5 -p tcp -e 1000 -c 2 -i 7 -a 2 -x {1.0 5.0 -1 ------- null}
r -t 4.762012 -s 3 -d 5 -p tcp -e 1000 -c 2 -i 5 -a 2 -x {1.0 5.0 0 ------- null}
+ -t 4.762012 -s 5 -d 3 -p ack -e 40 -c 2 -i 9 -a 2 -x {5.0 1.0 0 ------- null}
- -t 4.762012 -s 5 -d 3 -p ack -e 40 -c 2 -i 9 -a 2 -x {5.0 1.0 0 ------- null}
h -t 4.762012 -s 5 -d 3 -p ack -e 40 -c 2 -i 9 -a 2 -x {5.0 1.0 -1 ------- null}
r -t 4.76202 -s 3 -d 5 -p tcp -e 1000 -c 2 -i 6 -a 2 -x {1.0 5.0 1 ------- null}
+ -t 4.76202 -s 5 -d 3 -p ack -e 40 -c 2 -i 10 -a 2 -x {5.0 1.0 1 ------- null}
- -t 4.76202 -s 5 -d 3 -p ack -e 40 -c 2 -i 10 -a 2 -x {5.0 1.0 1 ------- null}
h -t 4.76202 -s 5 -d 3 -p ack -e 40 -c 2 -i 10 -a 2 -x {5.0 1.0 -1 ------- null}
r -t 4.82402496 -s 2 -d 0 -p ack -e 40 -c 1 -i 8 -a 1 -x {4.0 0.0 1 ------- null}
+ -t 4.82402496 -s 0 -d 2 -p tcp -e 1000 -c 1 -i 11 -a 1 -x {0.0 4.0 2 ------- null}
- -t 4.82402496 -s 0 -d 2 -p tcp -e 1000 -c 1 -i 11 -a 1 -x {0.0 4.0 2 ------- null}
h -t 4.82402496 -s 0 -d 2 -p tcp -e 1000 -c 1 -i 11 -a 1 -x {0.0 4.0 -1 ------- null}
+ -t 4.82402496 -s 0 -d 2 -p tcp -e 1000 -c 1 -i 12 -a 1 -x {0.0 4.0 3 ------- null}
+ -t 4.82402496 -s 0 -d 2 -p tcp -e 1000 -c 1 -i 13 -a 1 -x {0.0 4.0 4 ------- null}
- -t 4.82402696 -s 0 -d 2 -p tcp -e 1000 -c 1 -i 12 -a 1 -x {0.0 4.0 3 ------- null}
h -t 4.82402696 -s 0 -d 2 -p tcp -e 1000 -c 1 -i 12 -a 1 -x {0.0 4.0 -1 ------- null}
- -t 4.82402896 -s 0 -d 2 -p tcp -e 1000 -c 1 -i 13 -a 1 -x {0.0 4.0 4 ------- null}
h -t 4.82402896 -s 0 -d 2 -p tcp -e 1000 -c 1 -i 13 -a 1 -x {0.0 4.0 -1 ------- null}
r -t 5.28602448 -s 3 -d 5 -p tcp -e 1000 -c 2 -i 7 -a 2 -x {1.0 5.0 2 ------- null}
+ -t 5.28602448 -s 5 -d 3 -p ack -e 40 -c 2 -i 14 -a 2 -x {5.0 1.0 2 ------- null}
- -t 5.28602448 -s 5 -d 3 -p ack -e 40 -c 2 -i 14 -a 2 -x {5.0 1.0 2 ------- null}
h -t 5.28602448 -s 5 -d 3 -p ack -e 40 -c 2 -i 14 -a 2 -x {5.0 1.0 -1 ------- null}
r -t 5.40202696 -s 0 -d 2 -p tcp -e 1000 -c 1 -i 11 -a 1 -x {0.0 4.0 2 ------- null}
+ -t 5.40202696 -s 2 -d 3 -p tcp -e 1000 -c 1 -i 11 -a 1 -x {0.0 4.0 2 ------- null}
- -t 5.40202696 -s 2 -d 3 -p tcp -e 1000 -c 1 -i 11 -a 1 -x {0.0 4.0 2 ------- null}
h -t 5.40202696 -s 2 -d 3 -p tcp -e 1000 -c 1 -i 11 -a 1 -x {0.0 4.0 -1 ------- null}
r -t 5.40202896 -s 0 -d 2 -p tcp -e 1000 -c 1 -i 12 -a 1 -x {0.0 4.0 3 ------- null}
+ -t 5.40202896 -s 2 -d 3 -p tcp -e 1000 -c 1 -i 12 -a 1 -x {0.0 4.0 3 ------- null}
r -t 5.40203096 -s 0 -d 2 -p tcp -e 1000 -c 1 -i 13 -a 1 -x {0.0 4.0 4 ------- null}
+ -t 5.40203096 -s 2 -d 3 -p tcp -e 1000 -c 1 -i 13 -a 1 -x {0.0 4.0 4 ------- null}
- -t 5.40203496 -s 2 -d 3 -p tcp -e 1000 -c 1 -i 12 -a 1 -x {0.0 4.0 3 ------- null}
h -t 5.40203496 -s 2 -d 3 -p tcp -e 1000 -c 1 -i 12 -a 1 -x {0.0 4.0 -1 ------- null}
- -t 5.40204296 -s 2 -d 3 -p tcp -e 1000 -c 1 -i 13 -a 1 -x {0.0 4.0 4 ------- null}
h -t 5.40204296 -s 2 -d 3 -p tcp -e 1000 -c 1 -i 13 -a 1 -x {0.0 4.0 -1 ------- null}
r -t 5.45203496 -s 2 -d 3 -p tcp -e 1000 -c 1 -i 11 -a 1 -x {0.0 4.0 2 ------- null}
+ -t 5.45203496 -s 3 -d 4 -p tcp -e 1000 -c 1 -i 11 -a 1 -x {0.0 4.0 2 ------- null}
- -t 5.45203496 -s 3 -d 4 -p tcp -e 1000 -c 1 -i 11 -a 1 -x {0.0 4.0 2 ------- null}
h -t 5.45203496 -s 3 -d 4 -p tcp -e 1000 -c 1 -i 11 -a 1 -x {0.0 4.0 -1 ------- null}
r -t 5.45204296 -s 2 -d 3 -p tcp -e 1000 -c 1 -i 12 -a 1 -x {0.0 4.0 3 ------- null}
+ -t 5.45204296 -s 3 -d 4 -p tcp -e 1000 -c 1 -i 12 -a 1 -x {0.0 4.0 3 ------- null}
- -t 5.45204296 -s 3 -d 4 -p tcp -e 1000 -c 1 -i 12 -a 1 -x {0.0 4.0 3 ------- null}
h -t 5.45204296 -s 3 -d 4 -p tcp -e 1000 -c 1 -i 12 -a 1 -x {0.0 4.0 -1 ------- null}
r -t 5.45205096 -s 2 -d 3 -p tcp -e 1000 -c 1 -i 13 -a 1 -x {0.0 4.0 4 ------- null}
+ -t 5.45205096 -s 3 -d 4 -p tcp -e 1000 -c 1 -i 13 -a 1 -x {0.0 4.0 4 ------- null}
- -t 5.45205096 -s 3 -d 4 -p tcp -e 1000 -c 1 -i 13 -a 1 -x {0.0 4.0 4 ------- null}
h -t 5.45205096 -s 3 -d 4 -p tcp -e 1000 -c 1 -i 13 -a 1 -x {0.0 4.0 -1 ------- null}
r -t 5.61801208 -s 5 -d 3 -p ack -e 40 -c 2 -i 9 -a 2 -x {5.0 1.0 0 ------- null}
+ -t 5.61801208 -s 3 -d 2 -p ack -e 40 -c 2 -i 9 -a 2 -x {5.0 1.0 0 ------- null}
- -t 5.61801208 -s 3 -d 2 -p ack -e 40 -c 2 -i 9 -a 2 -x {5.0 1.0 0 ------- null}
h -t 5.61801208 -s 3 -d 2 -p ack -e 40 -c 2 -i 9 -a 2 -x {5.0 1.0 -1 ------- null}
r -t 5.61802008 -s 5 -d 3 -p ack -e 40 -c 2 -i 10 -a 2 -x {5.0 1.0 1 ------- null}
+ -t 5.61802008 -s 3 -d 2 -p ack -e 40 -c 2 -i 10 -a 2 -x {5.0 1.0 1 ------- null}
- -t 5.61802008 -s 3 -d 2 -p ack -e 40 -c 2 -i 10 -a 2 -x {5.0 1.0 1 ------- null}
h -t 5.61802008 -s 3 -d 2 -p ack -e 40 -c 2 -i 10 -a 2 -x {5.0 1.0 -1 ------- null}
r -t 5.6680124 -s 3 -d 2 -p ack -e 40 -c 2 -i 9 -a 2 -x {5.0 1.0 0 ------- null}
+ -t 5.6680124 -s 2 -d 1 -p ack -e 40 -c 2 -i 9 -a 2 -x {5.0 1.0 0 ------- null}
- -t 5.6680124 -s 2 -d 1 -p ack -e 40 -c 2 -i 9 -a 2 -x {5.0 1.0 0 ------- null}
h -t 5.6680124 -s 2 -d 1 -p ack -e 40 -c 2 -i 9 -a 2 -x {5.0 1.0 -1 ------- null}
r -t 5.6680204 -s 3 -d 2 -p ack -e 40 -c 2 -i 10 -a 2 -x {5.0 1.0 1 ------- null}
+ -t 5.6680204 -s 2 -d 1 -p ack -e 40 -c 2 -i 10 -a 2 -x {5.0 1.0 1 ------- null}
- -t 5.6680204 -s 2 -d 1 -p ack -e 40 -c 2 -i 10 -a 2 -x {5.0 1.0 1 ------- null}
h -t 5.6680204 -s 2 -d 1 -p ack -e 40 -c 2 -i 10 -a 2 -x {5.0 1.0 -1 ------- null}
r -t 6.03003696 -s 3 -d 4 -p tcp -e 1000 -c 1 -i 11 -a 1 -x {0.0 4.0 2 ------- null}
+ -t 6.03003696 -s 4 -d 3 -p ack -e 40 -c 1 -i 15 -a 1 -x {4.0 0.0 2 ------- null}
- -t 6.03003696 -s 4 -d 3 -p ack -e 40 -c 1 -i 15 -a 1 -x {4.0 0.0 2 ------- null}
h -t 6.03003696 -s 4 -d 3 -p ack -e 40 -c 1 -i 15 -a 1 -x {4.0 0.0 -1 ------- null}
r -t 6.03004496 -s 3 -d 4 -p tcp -e 1000 -c 1 -i 12 -a 1 -x {0.0 4.0 3 ------- null}
+ -t 6.03004496 -s 4 -d 3 -p ack -e 40 -c 1 -i 16 -a 1 -x {4.0 0.0 3 ------- null}
- -t 6.03004496 -s 4 -d 3 -p ack -e 40 -c 1 -i 16 -a 1 -x {4.0 0.0 3 ------- null}
h -t 6.03004496 -s 4 -d 3 -p ack -e 40 -c 1 -i 16 -a 1 -x {4.0 0.0 -1 ------- null}
r -t 6.03005296 -s 3 -d 4 -p tcp -e 1000 -c 1 -i 13 -a 1 -x {0.0 4.0 4 ------- null}
+ -t 6.03005296 -s 4 -d 3 -p ack -e 40 -c 1 -i 17 -a 1 -x {4.0 0.0 4 ------- null}
- -t 6.03005296 -s 4 -d 3 -p ack -e 40 -c 1 -i 17 -a 1 -x {4.0 0.0 4 ------- null}
h -t 6.03005296 -s 4 -d 3 -p ack -e 40 -c 1 -i 17 -a 1 -x {4.0 0.0 -1 ------- null}
r -t 6.14202456 -s 5 -d 3 -p ack -e 40 -c 2 -i 14 -a 2 -x {5.0 1.0 2 ------- null}
+ -t 6.14202456 -s 3 -d 2 -p ack -e 40 -c 2 -i 14 -a 2 -x {5.0 1.0 2 ------- null}
- -t 6.14202456 -s 3 -d 2 -p ack -e 40 -c 2 -i 14 -a 2 -x {5.0 1.0 2 ------- null}
h -t 6.14202456 -s 3 -d 2 -p ack -e 40 -c 2 -i 14 -a 2 -x {5.0 1.0 -1 ------- null}
r -t 6.19202488 -s 3 -d 2 -p ack -e 40 -c 2 -i 14 -a 2 -x {5.0 1.0 2 ------- null}
+ -t 6.19202488 -s 2 -d 1 -p ack -e 40 -c 2 -i 14 -a 2 -x {5.0 1.0 2 ------- null}
- -t 6.19202488 -s 2 -d 1 -p ack -e 40 -c 2 -i 14 -a 2 -x {5.0 1.0 2 ------- null}
h -t 6.19202488 -s 2 -d 1 -p ack -e 40 -c 2 -i 14 -a 2 -x {5.0 1.0 -1 ------- null}
r -t 6.52401248 -s 2 -d 1 -p ack -e 40 -c 2 -i 9 -a 2 -x {5.0 1.0 0 ------- null}
r -t 6.52402048 -s 2 -d 1 -p ack -e 40 -c 2 -i 10 -a 2 -x {5.0 1.0 1 ------- null}
+ -t 6.52402048 -s 1 -d 2 -p tcp -e 1000 -c 2 -i 18 -a 2 -x {1.0 5.0 3 ------- null}
- -t 6.52402048 -s 1 -d 2 -p tcp -e 1000 -c 2 -i 18 -a 2 -x {1.0 5.0 3 ------- null}
h -t 6.52402048 -s 1 -d 2 -p tcp -e 1000 -c 2 -i 18 -a 2 -x {1.0 5.0 -1 ------- null}
r -t 6.60803704 -s 4 -d 3 -p ack -e 40 -c 1 -i 15 -a 1 -x {4.0 0.0 2 ------- null}
+ -t 6.60803704 -s 3 -d 2 -p ack -e 40 -c 1 -i 15 -a 1 -x {4.0 0.0 2 ------- null}
- -t 6.60803704 -s 3 -d 2 -p ack -e 40 -c 1 -i 15 -a 1 -x {4.0 0.0 2 ------- null}
h -t 6.60803704 -s 3 -d 2 -p ack -e 40 -c 1 -i 15 -a 1 -x {4.0 0.0 -1 ------- null}
r -t 6.60804504 -s 4 -d 3 -p ack -e 40 -c 1 -i 16 -a 1 -x {4.0 0.0 3 ------- null}
+ -t 6.60804504 -s 3 -d 2 -p ack -e 40 -c 1 -i 16 -a 1 -x {4.0 0.0 3 ------- null}
- -t 6.60804504 -s 3 -d 2 -p ack -e 40 -c 1 -i 16 -a 1 -x {4.0 0.0 3 ------- null}
h -t 6.60804504 -s 3 -d 2 -p ack -e 40 -c 1 -i 16 -a 1 -x {4.0 0.0 -1 ------- null}
r -t 6.60805304 -s 4 -d 3 -p ack -e 40 -c 1 -i 17 -a 1 -x {4.0 0.0 4 ------- null}
+ -t 6.60805304 -s 3 -d 2 -p ack -e 40 -c 1 -i 17 -a 1 -x {4.0 0.0 4 ------- null}
- -t 6.60805304 -s 3 -d 2 -p ack -e 40 -c 1 -i 17 -a 1 -x {4.0 0.0 4 ------- null}
h -t 6.60805304 -s 3 -d 2 -p ack -e 40 -c 1 -i 17 -a 1 -x {4.0 0.0 -1 ------- null}
r -t 6.65803736 -s 3 -d 2 -p ack -e 40 -c 1 -i 15 -a 1 -x {4.0 0.0 2 ------- null}
+ -t 6.65803736 -s 2 -d 0 -p ack -e 40 -c 1 -i 15 -a 1 -x {4.0 0.0 2 ------- null}
- -t 6.65803736 -s 2 -d 0 -p ack -e 40 -c 1 -i 15 -a 1 -x {4.0 0.0 2 ------- null}
h -t 6.65803736 -s 2 -d 0 -p ack -e 40 -c 1 -i 15 -a 1 -x {4.0 0.0 -1 ------- null}
r -t 6.65804536 -s 3 -d 2 -p ack -e 40 -c 1 -i 16 -a 1 -x {4.0 0.0 3 ------- null}
+ -t 6.65804536 -s 2 -d 0 -p ack -e 40 -c 1 -i 16 -a 1 -x {4.0 0.0 3 ------- null}
- -t 6.65804536 -s 2 -d 0 -p ack -e 40 -c 1 -i 16 -a 1 -x {4.0 0.0 3 ------- null}
h -t 6.65804536 -s 2 -d 0 -p ack -e 40 -c 1 -i 16 -a 1 -x {4.0 0.0 -1 ------- null}
r -t 6.65805336 -s 3 -d 2 -p ack -e 40 -c 1 -i 17 -a 1 -x {4.0 0.0 4 ------- null}
+ -t 6.65805336 -s 2 -d 0 -p ack -e 40 -c 1 -i 17 -a 1 -x {4.0 0.0 4 ------- null}
- -t 6.65805336 -s 2 -d 0 -p ack -e 40 -c 1 -i 17 -a 1 -x {4.0 0.0 4 ------- null}
h -t 6.65805336 -s 2 -d 0 -p ack -e 40 -c 1 -i 17 -a 1 -x {4.0 0.0 -1 ------- null}
r -t 7.04802496 -s 2 -d 1 -p ack -e 40 -c 2 -i 14 -a 2 -x {5.0 1.0 2 ------- null}
+ -t 7.04802496 -s 1 -d 2 -p tcp -e 1000 -c 2 -i 19 -a 2 -x {1.0 5.0 4 ------- null}
- -t 7.04802496 -s 1 -d 2 -p tcp -e 1000 -c 2 -i 19 -a 2 -x {1.0 5.0 4 ------- null}
h -t 7.04802496 -s 1 -d 2 -p tcp -e 1000 -c 2 -i 19 -a 2 -x {1.0 5.0 -1 ------- null}
r -t 7.23603744 -s 2 -d 0 -p ack -e 40 -c 1 -i 15 -a 1 -x {4.0 0.0 2 ------- null}
+ -t 7.23603744 -s 0 -d 2 -p tcp -e 1000 -c 1 -i 20 -a 1 -x {0.0 4.0 5 ------- null}
- -t 7.23603744 -s 0 -d 2 -p tcp -e 1000 -c 1 -i 20 -a 1 -x {0.0 4.0 5 ------- null}
h -t 7.23603744 -s 0 -d 2 -p tcp -e 1000 -c 1 -i 20 -a 1 -x {0.0 4.0 -1 ------- null}
r -t 7.23604544 -s 2 -d 0 -p ack -e 40 -c 1 -i 16 -a 1 -x {4.0 0.0 3 ------- null}
+ -t 7.23604544 -s 0 -d 2 -p tcp -e 1000 -c 1 -i 21 -a 1 -x {0.0 4.0 6 ------- null}
- -t 7.23604544 -s 0 -d 2 -p tcp -e 1000 -c 1 -i 21 -a 1 -x {0.0 4.0 6 ------- null}
h -t 7.23604544 -s 0 -d 2 -p tcp -e 1000 -c 1 -i 21 -a 1 -x {0.0 4.0 -1 ------- null}
r -t 7.23605344 -s 2 -d 0 -p ack -e 40 -c 1 -i 17 -a 1 -x {4.0 0.0 4 ------- null}
+ -t 7.23605344 -s 0 -d 2 -p tcp -e 1000 -c 1 -i 22 -a 1 -x {0.0 4.0 7 ------- null}
- -t 7.23605344 -s 0 -d 2 -p tcp -e 1000 -c 1 -i 22 -a 1 -x {0.0 4.0 7 ------- null}
h -t 7.23605344 -s 0 -d 2 -p tcp -e 1000 -c 1 -i 22 -a 1 -x {0.0 4.0 -1 ------- null}
r -t 7.38002248 -s 1 -d 2 -p tcp -e 1000 -c 2 -i 18 -a 2 -x {1.0 5.0 3 ------- null}
+ -t 7.38002248 -s 2 -d 3 -p tcp -e 1000 -c 2 -i 18 -a 2 -x {1.0 5.0 3 ------- null}
- -t 7.38002248 -s 2 -d 3 -p tcp -e 1000 -c 2 -i 18 -a 2 -x {1.0 5.0 3 ------- null}
h -t 7.38002248 -s 2 -d 3 -p tcp -e 1000 -c 2 -i 18 -a 2 -x {1.0 5.0 -1 ------- null}
r -t 7.43003048 -s 2 -d 3 -p tcp -e 1000 -c 2 -i 18 -a 2 -x {1.0 5.0 3 ------- null}
+ -t 7.43003048 -s 3 -d 5 -p tcp -e 1000 -c 2 -i 18 -a 2 -x {1.0 5.0 3 ------- null}
- -t 7.43003048 -s 3 -d 5 -p tcp -e 1000 -c 2 -i 18 -a 2 -x {1.0 5.0 3 ------- null}
h -t 7.43003048 -s 3 -d 5 -p tcp -e 1000 -c 2 -i 18 -a 2 -x {1.0 5.0 -1 ------- null}
r -t 7.81403944 -s 0 -d 2 -p tcp -e 1000 -c 1 -i 20 -a 1 -x {0.0 4.0 5 ------- null}
+ -t 7.81403944 -s 2 -d 3 -p tcp -e 1000 -c 1 -i 20 -a 1 -x {0.0 4.0 5 ------- null}
- -t 7.81403944 -s 2 -d 3 -p tcp -e 1000 -c 1 -i 20 -a 1 -x {0.0 4.0 5 ------- null}
h -t 7.81403944 -s 2 -d 3 -p tcp -e 1000 -c 1 -i 20 -a 1 -x {0.0 4.0 -1 ------- null}
r -t 7.81404744 -s 0 -d 2 -p tcp -e 1000 -c 1 -i 21 -a 1 -x {0.0 4.0 6 ------- null}
+ -t 7.81404744 -s 2 -d 3 -p tcp -e 1000 -c 1 -i 21 -a 1 -x {0.0 4.0 6 ------- null}
- -t 7.81404744 -s 2 -d 3 -p tcp -e 1000 -c 1 -i 21 -a 1 -x {0.0 4.0 6 ------- null}
h -t 7.81404744 -s 2 -d 3 -p tcp -e 1000 -c 1 -i 21 -a 1 -x {0.0 4.0 -1 ------- null}
r -t 7.81405544 -s 0 -d 2 -p tcp -e 1000 -c 1 -i 22 -a 1 -x {0.0 4.0 7 ------- null}
+ -t 7.81405544 -s 2 -d 3 -p tcp -e 1000 -c 1 -i 22 -a 1 -x {0.0 4.0 7 ------- null}
- -t 7.81405544 -s 2 -d 3 -p tcp -e 1000 -c 1 -i 22 -a 1 -x {0.0 4.0 7 ------- null}
h -t 7.81405544 -s 2 -d 3 -p tcp -e 1000 -c 1 -i 22 -a 1 -x {0.0 4.0 -1 ------- null}
r -t 7.86404744 -s 2 -d 3 -p tcp -e 1000 -c 1 -i 20 -a 1 -x {0.0 4.0 5 ------- null}
+ -t 7.86404744 -s 3 -d 4 -p tcp -e 1000 -c 1 -i 20 -a 1 -x {0.0 4.0 5 ------- null}
- -t 7.86404744 -s 3 -d 4 -p tcp -e 1000 -c 1 -i 20 -a 1 -x {0.0 4.0 5 ------- null}
h -t 7.86404744 -s 3 -d 4 -p tcp -e 1000 -c 1 -i 20 -a 1 -x {0.0 4.0 -1 ------- null}
r -t 7.86405544 -s 2 -d 3 -p tcp -e 1000 -c 1 -i 21 -a 1 -x {0.0 4.0 6 ------- null}
+ -t 7.86405544 -s 3 -d 4 -p tcp -e 1000 -c 1 -i 21 -a 1 -x {0.0 4.0 6 ------- null}
- -t 7.86405544 -s 3 -d 4 -p tcp -e 1000 -c 1 -i 21 -a 1 -x {0.0 4.0 6 ------- null}
h -t 7.86405544 -s 3 -d 4 -p tcp -e 1000 -c 1 -i 21 -a 1 -x {0.0 4.0 -1 ------- null}
r -t 7.86406344 -s 2 -d 3 -p tcp -e 1000 -c 1 -i 22 -a 1 -x {0.0 4.0 7 ------- null}
+ -t 7.86406344 -s 3 -d 4 -p tcp -e 1000 -c 1 -i 22 -a 1 -x {0.0 4.0 7 ------- null}
- -t 7.86406344 -s 3 -d 4 -p tcp -e 1000 -c 1 -i 22 -a 1 -x {0.0 4.0 7 ------- null}
h -t 7.86406344 -s 3 -d 4 -p tcp -e 1000 -c 1 -i 22 -a 1 -x {0.0 4.0 -1 ------- null}
r -t 7.90402696 -s 1 -d 2 -p tcp -e 1000 -c 2 -i 19 -a 2 -x {1.0 5.0 4 ------- null}
+ -t 7.90402696 -s 2 -d 3 -p tcp -e 1000 -c 2 -i 19 -a 2 -x {1.0 5.0 4 ------- null}
- -t 7.90402696 -s 2 -d 3 -p tcp -e 1000 -c 2 -i 19 -a 2 -x {1.0 5.0 4 ------- null}
h -t 7.90402696 -s 2 -d 3 -p tcp -e 1000 -c 2 -i 19 -a 2 -x {1.0 5.0 -1 ------- null}
r -t 7.95403496 -s 2 -d 3 -p tcp -e 1000 -c 2 -i 19 -a 2 -x {1.0 5.0 4 ------- null}
+ -t 7.95403496 -s 3 -d 5 -p tcp -e 1000 -c 2 -i 19 -a 2 -x {1.0 5.0 4 ------- null}
- -t 7.95403496 -s 3 -d 5 -p tcp -e 1000 -c 2 -i 19 -a 2 -x {1.0 5.0 4 ------- null}
h -t 7.95403496 -s 3 -d 5 -p tcp -e 1000 -c 2 -i 19 -a 2 -x {1.0 5.0 -1 ------- null}
r -t 8.28603248 -s 3 -d 5 -p tcp -e 1000 -c 2 -i 18 -a 2 -x {1.0 5.0 3 ------- null}
+ -t 8.28603248 -s 5 -d 3 -p ack -e 40 -c 2 -i 23 -a 2 -x {5.0 1.0 3 ------- null}
- -t 8.28603248 -s 5 -d 3 -p ack -e 40 -c 2 -i 23 -a 2 -x {5.0 1.0 3 ------- null}
h -t 8.28603248 -s 5 -d 3 -p ack -e 40 -c 2 -i 23 -a 2 -x {5.0 1.0 -1 ------- null}
r -t 8.44204944 -s 3 -d 4 -p tcp -e 1000 -c 1 -i 20 -a 1 -x {0.0 4.0 5 ------- null}
+ -t 8.44204944 -s 4 -d 3 -p ack -e 40 -c 1 -i 24 -a 1 -x {4.0 0.0 5 ------- null}
- -t 8.44204944 -s 4 -d 3 -p ack -e 40 -c 1 -i 24 -a 1 -x {4.0 0.0 5 ------- null}
h -t 8.44204944 -s 4 -d 3 -p ack -e 40 -c 1 -i 24 -a 1 -x {4.0 0.0 -1 ------- null}
r -t 8.44205744 -s 3 -d 4 -p tcp -e 1000 -c 1 -i 21 -a 1 -x {0.0 4.0 6 ------- null}
+ -t 8.44205744 -s 4 -d 3 -p ack -e 40 -c 1 -i 25 -a 1 -x {4.0 0.0 6 ------- null}
- -t 8.44205744 -s 4 -d 3 -p ack -e 40 -c 1 -i 25 -a 1 -x {4.0 0.0 6 ------- null}
h -t 8.44205744 -s 4 -d 3 -p ack -e 40 -c 1 -i 25 -a 1 -x {4.0 0.0 -1 ------- null}
r -t 8.44206544 -s 3 -d 4 -p tcp -e 1000 -c 1 -i 22 -a 1 -x {0.0 4.0 7 ------- null}
+ -t 8.44206544 -s 4 -d 3 -p ack -e 40 -c 1 -i 26 -a 1 -x {4.0 0.0 7 ------- null}
- -t 8.44206544 -s 4 -d 3 -p ack -e 40 -c 1 -i 26 -a 1 -x {4.0 0.0 7 ------- null}
h -t 8.44206544 -s 4 -d 3 -p ack -e 40 -c 1 -i 26 -a 1 -x {4.0 0.0 -1 ------- null}
r -t 8.81003696 -s 3 -d 5 -p tcp -e 1000 -c 2 -i 19 -a 2 -x {1.0 5.0 4 ------- null}
+ -t 8.81003696 -s 5 -d 3 -p ack -e 40 -c 2 -i 27 -a 2 -x {5.0 1.0 4 ------- null}
- -t 8.81003696 -s 5 -d 3 -p ack -e 40 -c 2 -i 27 -a 2 -x {5.0 1.0 4 ------- null}
h -t 8.81003696 -s 5 -d 3 -p ack -e 40 -c 2 -i 27 -a 2 -x {5.0 1.0 -1 ------- null}
r -t 9.02004952 -s 4 -d 3 -p ack -e 40 -c 1 -i 24 -a 1 -x {4.0 0.0 5 ------- null}
+ -t 9.02004952 -s 3 -d 2 -p ack -e 40 -c 1 -i 24 -a 1 -x {4.0 0.0 5 ------- null}
- -t 9.02004952 -s 3 -d 2 -p ack -e 40 -c 1 -i 24 -a 1 -x {4.0 0.0 5 ------- null}
h -t 9.02004952 -s 3 -d 2 -p ack -e 40 -c 1 -i 24 -a 1 -x {4.0 0.0 -1 ------- null}
r -t 9.02005752 -s 4 -d 3 -p ack -e 40 -c 1 -i 25 -a 1 -x {4.0 0.0 6 ------- null}
+ -t 9.02005752 -s 3 -d 2 -p ack -e 40 -c 1 -i 25 -a 1 -x {4.0 0.0 6 ------- null}
- -t 9.02005752 -s 3 -d 2 -p ack -e 40 -c 1 -i 25 -a 1 -x {4.0 0.0 6 ------- null}
h -t 9.02005752 -s 3 -d 2 -p ack -e 40 -c 1 -i 25 -a 1 -x {4.0 0.0 -1 ------- null}
r -t 9.02006552 -s 4 -d 3 -p ack -e 40 -c 1 -i 26 -a 1 -x {4.0 0.0 7 ------- null}
+ -t 9.02006552 -s 3 -d 2 -p ack -e 40 -c 1 -i 26 -a 1 -x {4.0 0.0 7 ------- null}
- -t 9.02006552 -s 3 -d 2 -p ack -e 40 -c 1 -i 26 -a 1 -x {4.0 0.0 7 ------- null}
h -t 9.02006552 -s 3 -d 2 -p ack -e 40 -c 1 -i 26 -a 1 -x {4.0 0.0 -1 ------- null}
r -t 9.07004984 -s 3 -d 2 -p ack -e 40 -c 1 -i 24 -a 1 -x {4.0 0.0 5 ------- null}
+ -t 9.07004984 -s 2 -d 0 -p ack -e 40 -c 1 -i 24 -a 1 -x {4.0 0.0 5 ------- null}
- -t 9.07004984 -s 2 -d 0 -p ack -e 40 -c 1 -i 24 -a 1 -x {4.0 0.0 5 ------- null}
h -t 9.07004984 -s 2 -d 0 -p ack -e 40 -c 1 -i 24 -a 1 -x {4.0 0.0 -1 ------- null}
r -t 9.07005784 -s 3 -d 2 -p ack -e 40 -c 1 -i 25 -a 1 -x {4.0 0.0 6 ------- null}
+ -t 9.07005784 -s 2 -d 0 -p ack -e 40 -c 1 -i 25 -a 1 -x {4.0 0.0 6 ------- null}
- -t 9.07005784 -s 2 -d 0 -p ack -e 40 -c 1 -i 25 -a 1 -x {4.0 0.0 6 ------- null}
h -t 9.07005784 -s 2 -d 0 -p ack -e 40 -c 1 -i 25 -a 1 -x {4.0 0.0 -1 ------- null}
r -t 9.07006584 -s 3 -d 2 -p ack -e 40 -c 1 -i 26 -a 1 -x {4.0 0.0 7 ------- null}
+ -t 9.07006584 -s 2 -d 0 -p ack -e 40 -c 1 -i 26 -a 1 -x {4.0 0.0 7 ------- null}
- -t 9.07006584 -s 2 -d 0 -p ack -e 40 -c 1 -i 26 -a 1 -x {4.0 0.0 7 ------- null}
h -t 9.07006584 -s 2 -d 0 -p ack -e 40 -c 1 -i 26 -a 1 -x {4.0 0.0 -1 ------- null}
r -t 9.14203256 -s 5 -d 3 -p ack -e 40 -c 2 -i 23 -a 2 -x {5.0 1.0 3 ------- null}
+ -t 9.14203256 -s 3 -d 2 -p ack -e 40 -c 2 -i 23 -a 2 -x {5.0 1.0 3 ------- null}
- -t 9.14203256 -s 3 -d 2 -p ack -e 40 -c 2 -i 23 -a 2 -x {5.0 1.0 3 ------- null}
h -t 9.14203256 -s 3 -d 2 -p ack -e 40 -c 2 -i 23 -a 2 -x {5.0 1.0 -1 ------- null}
r -t 9.19203288 -s 3 -d 2 -p ack -e 40 -c 2 -i 23 -a 2 -x {5.0 1.0 3 ------- null}
+ -t 9.19203288 -s 2 -d 1 -p ack -e 40 -c 2 -i 23 -a 2 -x {5.0 1.0 3 ------- null}
- -t 9.19203288 -s 2 -d 1 -p ack -e 40 -c 2 -i 23 -a 2 -x {5.0 1.0 3 ------- null}
h -t 9.19203288 -s 2 -d 1 -p ack -e 40 -c 2 -i 23 -a 2 -x {5.0 1.0 -1 ------- null}
r -t 9.64804992 -s 2 -d 0 -p ack -e 40 -c 1 -i 24 -a 1 -x {4.0 0.0 5 ------- null}
+ -t 9.64804992 -s 0 -d 2 -p tcp -e 1000 -c 1 -i 28 -a 1 -x {0.0 4.0 8 ------- null}
- -t 9.64804992 -s 0 -d 2 -p tcp -e 1000 -c 1 -i 28 -a 1 -x {0.0 4.0 8 ------- null}
h -t 9.64804992 -s 0 -d 2 -p tcp -e 1000 -c 1 -i 28 -a 1 -x {0.0 4.0 -1 ------- null}
+ -t 9.64804992 -s 0 -d 2 -p tcp -e 1000 -c 1 -i 29 -a 1 -x {0.0 4.0 9 ------- null}
- -t 9.64805192 -s 0 -d 2 -p tcp -e 1000 -c 1 -i 29 -a 1 -x {0.0 4.0 9 ------- null}
h -t 9.64805192 -s 0 -d 2 -p tcp -e 1000 -c 1 -i 29 -a 1 -x {0.0 4.0 -1 ------- null}
r -t 9.64805792 -s 2 -d 0 -p ack -e 40 -c 1 -i 25 -a 1 -x {4.0 0.0 6 ------- null}
+ -t 9.64805792 -s 0 -d 2 -p tcp -e 1000 -c 1 -i 30 -a 1 -x {0.0 4.0 10 ------- null}
- -t 9.64805792 -s 0 -d 2 -p tcp -e 1000 -c 1 -i 30 -a 1 -x {0.0 4.0 10 ------- null}
h -t 9.64805792 -s 0 -d 2 -p tcp -e 1000 -c 1 -i 30 -a 1 -x {0.0 4.0 -1 ------- null}
+ -t 9.64805792 -s 0 -d 2 -p tcp -e 1000 -c 1 -i 31 -a 1 -x {0.0 4.0 11 ------- null}
- -t 9.64805992 -s 0 -d 2 -p tcp -e 1000 -c 1 -i 31 -a 1 -x {0.0 4.0 11 ------- null}
h -t 9.64805992 -s 0 -d 2 -p tcp -e 1000 -c 1 -i 31 -a 1 -x {0.0 4.0 -1 ------- null}
r -t 9.64806592 -s 2 -d 0 -p ack -e 40 -c 1 -i 26 -a 1 -x {4.0 0.0 7 ------- null}
+ -t 9.64806592 -s 0 -d 2 -p tcp -e 1000 -c 1 -i 32 -a 1 -x {0.0 4.0 12 ------- null}
- -t 9.64806592 -s 0 -d 2 -p tcp -e 1000 -c 1 -i 32 -a 1 -x {0.0 4.0 12 ------- null}
h -t 9.64806592 -s 0 -d 2 -p tcp -e 1000 -c 1 -i 32 -a 1 -x {0.0 4.0 -1 ------- null}
+ -t 9.64806592 -s 0 -d 2 -p tcp -e 1000 -c 1 -i 33 -a 1 -x {0.0 4.0 13 ------- null}
- -t 9.64806792 -s 0 -d 2 -p tcp -e 1000 -c 1 -i 33 -a 1 -x {0.0 4.0 13 ------- null}
h -t 9.64806792 -s 0 -d 2 -p tcp -e 1000 -c 1 -i 33 -a 1 -x {0.0 4.0 -1 ------- null}
r -t 9.66603704 -s 5 -d 3 -p ack -e 40 -c 2 -i 27 -a 2 -x {5.0 1.0 4 ------- null}
+ -t 9.66603704 -s 3 -d 2 -p ack -e 40 -c 2 -i 27 -a 2 -x {5.0 1.0 4 ------- null}
- -t 9.66603704 -s 3 -d 2 -p ack -e 40 -c 2 -i 27 -a 2 -x {5.0 1.0 4 ------- null}
h -t 9.66603704 -s 3 -d 2 -p ack -e 40 -c 2 -i 27 -a 2 -x {5.0 1.0 -1 ------- null}
r -t 9.71603736 -s 3 -d 2 -p ack -e 40 -c 2 -i 27 -a 2 -x {5.0 1.0 4 ------- null}