V -t * -v 1.0a5 -a 0
A -t * -n 1 -p 0 -o 0x7fffffff -c 30 -a 1
A -t * -h 1 -m 1073741823 -s 0
c -t * -i 1 -n Blue
c -t * -i 2 -n Red
n -t * -a 4 -s 4 -S UP -v circle -c black -i black
n -t * -a 0 -s 0 -S UP -v circle -c black -i black
n -t * -a 5 -s 5 -S UP -v circle -c black -i black
n -t * -a 1 -s 1 -S UP -v circle -c black -i black
n -t * -a 2 -s 2 -S UP -v circle -c black -i black
n -t * -a 3 -s 3 -S UP -v circle -c black -i black
l -t * -s 0 -d 2 -S UP -r 4000000000 -D 0.58899999999999997 -c black -o right-down
l -t * -s 1 -d 2 -S UP -r 4000000000 -D 0.86699999999999999 -c black -o right-up
l -t * -s 2 -d 3 -S UP -r 1000000000 -D 0.050000000000000003 -c black -o right
l -t * -s 3 -d 4 -S UP -r 4000000000 -D 0.58899999999999997 -c black -o right-up
l -t * -s 3 -d 5 -S UP -r 4000000000 -D 0.86699999999999999 -c black -o right-down
+ -t 0 -s 1 -d 2 -p tcp -e 1000 -c 2 -i 0 -a 2 -x {1.0 5.0 0 ------- null}
- -t 0 -s 1 -d 2 -p tcp -e 1000 -c 2 -i 0 -a 2 -x {1.0 5.0 0 ------- null}
h -t 0 -s 1 -d 2 -p tcp -e 1000 -c 2 -i 0 -a 2 -x {1.0 5.0 -1 ------- null}
+ -t 0 -s 0 -d 2 -p tcp -e 1000 -c 1 -i 1 -a 1 -x {0.0 4.0 0 ------- null}
- -t 0 -s 0 -d 2 -p tcp -e 1000 -c 1 -i 1 -a 1 -x {0.0 4.0 0 ------- null}
h -t 0 -s 0 -d 2 -p tcp -e 1000 -c 1 -i 1 -a 1 -x {0.0 4.0 -1 ------- null}
r -t 0.589002 -s 0 -d 2 -p tcp -e 1000 -c 1 -i 1 -a 1 -x {0.0 4.0 0 ------- null}
+ -t 0.589002 -s 2 -d 3 -p tcp -e 1000 -c 1 -i 1 -a 1 -x {0.0 4.0 0 ------- null}
- -t 0.589002 -s 2 -d 3 -p tcp -e 1000 -c 1 -i 1 -a 1 -x {0.0 4.0 0 ------- null}
h -t 0.589002 -s 2 -d 3 -p tcp -e 1000 -c 1 -i 1 -a 1 -x {0.0 4.0 -1 ------- null}
r -t 0.63901 -s 2 -d 3 -p tcp -e 1000 -c 1 -i 1 -a 1 -x {0.0 4.0 0 ------- null}
+ -t 0.63901 -s 3 -d 4 -p tcp -e 1000 -c 1 -i 1 -a 1 -x {0.0 4.0 0 ------- null}
- -t 0.63901 -s 3 -d 4 -p tcp -e 1000 -c 1 -i 1 -a 1 -x {0.0 4.0 0 ------- null}
h -t 0.63901 -s 3 -d 4 -p tcp -e 1000 -c 1 -i 1 -a 1 -x {0.0 4.0 -1 ------- null}
r -t 0.867002 -s 1 -d 2 -p tcp -e 1000 -c 2 -i 0 -a 2 -x {1.0 5.0 0 ------- null}
+ -t 0.867002 -s 2 -d 3 -p tcp -e 1000 -c 2 -i 0 -a 2 -x {1.0 5.0 0 ------- null}
- -t 0.867002 -s 2 -d 3 -p tcp -e 1000 -c 2 -i 0 -a 2 -x {1.0 5.0 0 ------- null}
h -t 0.867002 -s 2 -d 3 -p tcp -e 1000 -c 2 -i 0 -a 2 -x {1.0 5.0 -1 ------- null}
r -t 0.91701 -s 2 -d 3 -p tcp -e 1000 -c 2 -i 0 -a 2 -x {1.0 5.0 0 ------- null}
+ -t 0.91701 -s 3 -d 5 -p tcp -e 1000 -c 2 -i 0 -a 2 -x {1.0 5.0 0 ------- null}
- -t 0.91701 -s 3 -d 5 -p tcp -e 1000 -c 2 -i 0 -a 2 -x {1.0 5.0 0 ------- null}
h -t 0.91701 -s 3 -d 5 -p tcp -e 1000 -c 2 -i 0 -a 2 -x {1.0 5.0 -1 ------- null}
r -t 1.228012 -s 3 -d 4 -p tcp -e 1000 -c 1 -i 1 -a 1 -x {0.0 4.0 0 ------- null}
+ -t 1.228012 -s 4 -d 3 -p ack -e 40 -c 1 -i 2 -a 1 -x {4.0 0.0 0 ------- null}
- -t 1.228012 -s 4 -d 3 -p ack -e 40 -c 1 -i 2 -a 1 -x {4.0 0.0 0 ------- null}
h -t 1.228012 -s 4 -d 3 -p ack -e 40 -c 1 -i 2 -a 1 -x {4.0 0.0 -1 ------- null}
r -t 1.784012 -s 3 -d 5 -p tcp -e 1000 -c 2 -i 0 -a 2 -x {1.0 5.0 0 ------- null}
+ -t 1.784012 -s 5 -d 3 -p ack -e 40 -c 2 -i 3 -a 2 -x {5.0 1.0 0 ------- null}
- -t 1.784012 -s 5 -d 3 -p ack -e 40 -c 2 -i 3 -a 2 -x {5.0 1.0 0 ------- null}
h -t 1.784012 -s 5 -d 3 -p ack -e 40 -c 2 -i 3 -a 2 -x {5.0 1.0 -1 ------- null}
r -t 1.81701208 -s 4 -d 3 -p ack -e 40 -c 1 -i 2 -a 1 -x {4.0 0.0 0 ------- null}
+ -t 1.81701208 -s 3 -d 2 -p ack -e 40 -c 1 -i 2 -a 1 -x {4.0 0.0 0 ------- null}
- -t 1.81701208 -s 3 -d 2 -p ack -e 40 -c 1 -i 2 -a 1 -x {4.0 0.0 0 ------- null}
h -t 1.81701208 -s 3 -d 2 -p ack -e 40 -c 1 -i 2 -a 1 -x {4.0 0.0 -1 ------- null}
r -t 1.8670124 -s 3 -d 2 -p ack -e 40 -c 1 -i 2 -a 1 -x {4.0 0.0 0 ------- null}
+ -t 1.8670124 -s 2 -d 0 -p ack -e 40 -c 1 -i 2 -a 1 -x {4.0 0.0 0 ------- null}
- -t 1.8670124 -s 2 -d 0 -p ack -e 40 -c 1 -i 2 -a 1 -x {4.0 0.0 0 ------- null}
h -t 1.8670124 -s 2 -d 0 -p ack -e 40 -c 1 -i 2 -a 1 -x {4.0 0.0 -1 ------- null}
r -t 2.45601248 -s 2 -d 0 -p ack -e 40 -c 1 -i 2 -a 1 -x {4.0 0.0 0 ------- null}
+ -t 2.45601248 -s 0 -d 2 -p tcp -e 1000 -c 1 -i 4 -a 1 -x {0.0 4.0 1 ------- null}
- -t 2.45601248 -s 0 -d 2 -p tcp -e 1000 -c 1 -i 4 -a 1 -x {0.0 4.0 1 ------- null}
h -t 2.45601248 -s 0 -d 2 -p tcp -e 1000 -c 1 -i 4 -a 1 -x {0.0 4.0 -1 ------- null}
r -t 2.65101208 -s 5 -d 3 -p ack -e 40 -c 2 -i 3 -a 2 -x {5.0 1.0 0 ------- null}
+ -t 2.65101208 -s 3 -d 2 -p ack -e 40 -c 2 -i 3 -a 2 -x {5.0 1.0 0 ------- null}
- -t 2.65101208 -s 3 -d 2 -p ack -e 40 -c 2 -i 3 -a 2 -x {5.0 1.0 0 ------- null}
h -t 2.65101208 -s 3 -d 2 -p ack -e 40 -c 2 -i 3 -a 2 -x {5.0 1.0 -1 ------- null}
r -t 2.7010124 -s 3 -d 2 -p ack -e 40 -c 2 -i 3 -a 2 -x {5.0 1.0 0 ------- null}
+ -t 2.7010124 -s 2 -d 1 -p ack -e 40 -c 2 -i 3 -a 2 -x {5.0 1.0 0 ------- null}
- -t 2.7010124 -s 2 -d 1 -p ack -e 40 -c 2 -i 3 -a 2 -x {5.0 1.0 0 ------- null}
h -t 2.7010124 -s 2 -d 1 -p ack -e 40 -c 2 -i 3 -a 2 -x {5.0 1.0 -1 ------- null}
+ -t 3 -s 1 -d 2 -p tcp -e 1000 -c 2 -i 5 -a 2 -x {1.0 5.0 0 ------- null}
- -t 3 -s 1 -d 2 -p tcp -e 1000 -c 2 -i 5 -a 2 -x {1.0 5.0 0 ------- null}
h -t 3 -s 1 -d 2 -p tcp -e 1000 -c 2 -i 5 -a 2 -x {1.0 5.0 -1 ------- null}
+ -t 3 -s 1 -d 2 -p tcp -e 1000 -c 2 -i 6 -a 2 -x {1.0 5.0 1 ------- null}
- -t 3.000002 -s 1 -d 2 -p tcp -e 1000 -c 2 -i 6 -a 2 -x {1.0 5.0 1 ------- null}
h -t 3.000002 -s 1 -d 2 -p tcp -e 1000 -c 2 -i 6 -a 2 -x {1.0 5.0 -1 ------- null}
r -t 3.04501448 -s 0 -d 2 -p tcp -e 1000 -c 1 -i 4 -a 1 -x {0.0 4.0 1 ------- null}
+ -t 3.04501448 -s 2 -d 3 -p tcp -e 1000 -c 1 -i 4 -a 1 -x {0.0 4.0 1 ------- null}
- -t 3.04501448 -s 2 -d 3 -p tcp -e 1000 -c 1 -i 4 -a 1 -x {0.0 4.0 1 ------- null}
h -t 3.04501448 -s 2 -d 3 -p tcp -e 1000 -c 1 -i 4 -a 1 -x {0.0 4.0 -1 ------- null}
r -t 3.09502248 -s 2 -d 3 -p tcp -e 1000 -c 1 -i 4 -a 1 -x {0.0 4.0 1 ------- null}
+ -t 3.09502248 -s 3 -d 4 -p tcp -e 1000 -c 1 -i 4 -a 1 -x {0.0 4.0 1 ------- null}
- -t 3.09502248 -s 3 -d 4 -p tcp -e 1000 -c 1 -i 4 -a 1 -x {0.0 4.0 1 ------- null}
h -t 3.09502248 -s 3 -d 4 -p tcp -e 1000 -c 1 -i 4 -a 1 -x {0.0 4.0 -1 ------- null}
r -t 3.56801248 -s 2 -d 1 -p ack -e 40 -c 2 -i 3 -a 2 -x {5.0 1.0 0 ------- null}
+ -t 3.56801248 -s 1 -d 2 -p tcp -e 1000 -c 2 -i 7 -a 2 -x {1.0 5.0 2 ------- null}
- -t 3.56801248 -s 1 -d 2 -p tcp -e 1000 -c 2 -i 7 -a 2 -x {1.0 5.0 2 ------- null}
h -t 3.56801248 -s 1 -d 2 -p tcp -e 1000 -c 2 -i 7 -a 2 -x {1.0 5.0 -1 ------- null}
r -t 3.68402448 -s 3 -d 4 -p tcp -e 1000 -c 1 -i 4 -a 1 -x {0.0 4.0 1 ------- null}
+ -t 3.68402448 -s 4 -d 3 -p ack -e 40 -c 1 -i 8 -a 1 -x {4.0 0.0 1 ------- null}
- -t 3.68402448 -s 4 -d 3 -p ack -e 40 -c 1 -i 8 -a 1 -x {4.0 0.0 1 ------- null}
h -t 3.68402448 -s 4 -d 3 -p ack -e 40 -c 1 -i 8 -a 1 -x {4.0 0.0 -1 ------- null}
r -t 3.867002 -s 1 -d 2 -p tcp -e 1000 -c 2 -i 5 -a 2 -x {1.0 5.0 0 ------- null}
+ -t 3.867002 -s 2 -d 3 -p tcp -e 1000 -c 2 -i 5 -a 2 -x {1.0 5.0 0 ------- null}
- -t 3.867002 -s 2 -d 3 -p tcp -e 1000 -c 2 -i 5 -a 2 -x {1.0 5.0 0 ------- null}
h -t 3.867002 -s 2 -d 3 -p tcp -e 1000 -c 2 -i 5 -a 2 -x {1.0 5.0 -1 ------- null}
r -t 3.867004 -s 1 -d 2 -p tcp -e 1000 -c 2 -i 6 -a 2 -x {1.0 5.0 1 ------- null}
+ -t 3.867004 -s 2 -d 3 -p tcp -e 1000 -c 2 -i 6 -a 2 -x {1.0 5.0 1 ------- null}
- -t 3.86701 -s 2 -d 3 -p tcp -e 1000 -c 2 -i 6 -a 2 -x {1.0 5.0 1 ------- null}
h -t 3.86701 -s 2 -d 3 -p tcp -e 1000 -c 2 -i 6 -a 2 -x {1.0 5.0 -1 ------- null}
r -t 3.91701 -s 2 -d 3 -p tcp -e 1000 -c 2 -i 5 -a 2 -x {1.0 5.0 0 ------- null}
+ -t 3.91701 -s 3 -d 5 -p tcp -e 1000 -c 2 -i 5 -a 2 -x {1.0 5.0 0 ------- null}
- -t 3.91701 -s 3 -d 5 -p tcp -e 1000 -c 2 -i 5 -a 2 -x {1.0 5.0 0 ------- null}
h -t 3.91701 -s 3 -d 5 -p tcp -e 1000 -c 2 -i 5 -a 2 -x {1.0 5.0 -1 ------- null}
r -t 3.917018 -s 2 -d 3 -p tcp -e 1000 -c 2 -i 6 -a 2 -x {1.0 5.0 1 ------- null}
+ -t 3.917018 -s 3 -d 5 -p tcp -e 1000 -c 2 -i 6 -a 2 -x {1.0 5.0 1 ------- null}
- -t 3.917018 -s 3 -d 5 -p tcp -e 1000 -c 2 -i 6 -a 2 -x {1.0 5.0 1 ------- null}
h -t 3.917018 -s 3 -d 5 -p tcp -e 1000 -c 2 -i 6 -a 2 -x {1.0 5.0 -1 ------- null}
r -t 4.27302456 -s 4 -d 3 -p ack -e 40 -c 1 -i 8 -a 1 -x {4.0 0.0 1 ------- null}
+ -t 4.27302456 -s 3 -d 2 -p ack -e 40 -c 1 -i 8 -a 1 -x {4.0 0.0 1 ------- null}
- -t 4.27302456 -s 3 -d 2 -p ack -e 40 -c 1 -i 8 -a 1 -x {4.0 0.0 1 ------- null}
h -t 4.27302456 -s 3 -d 2 -p ack -e 40 -c 1 -i 8 -a 1 -x {4.0 0.0 -1 ------- null}
r -t 4.32302488 -s 3 -d 2 -p ack -e 40 -c 1 -i 8 -a 1 -x {4.0 0.0 1 ------- null}
+ -t 4.32302488 -s 2 -d 0 -p ack -e 40 -c 1 -i 8 -a 1 -x {4.0 0.0 1 ------- null}
- -t 4.32302488 -s 2 -d 0 -p ack -e 40 -c 1 -i 8 -a 1 -x {4.0 0.0 1 ------- null}
h -t 4.32302488 -s 2 -d 0 -p ack -e 40 -c 1 -i 8 -a 1 -x {4.0 0.0 -1 ------- null}
r -t 4.43501448 -s 1 -d 2 -p tcp -e 1000 -c 2 -i 7 -a 2 -x {1.0 5.0 2 ------- null}
+ -t 4.43501448 -s 2 -d 3 -p tcp -e 1000 -c 2 -i 7 -a 2 -x {1.0 5.0 2 ------- null}
- -t 4.43501448 -s 2 -d 3 -p tcp -e 1000 -c 2 -i 7 -a 2 -x {1.0 5.0 2 ------- null}
h -t 4.43501448 -s 2 -d 3 -p tcp -e 1000 -c 2 -i 7 -a 2 -x {1.0 5.0 -1 ------- null}
r -t 4.48502248 -s 2 -d 3 -p tcp -e 1000 -c 2 -i 7 -a 2 -x {1.0 5.0 2 ------- null}
+ -t 4.48502248 -s 3 -d 5 -p tcp -e 1000 -c 2 -i 7 -a 2 -x {1.0 5.0 2 ------- null}
- -t 4.48502248 -s 3 -d 5 -p tcp -e 1000 -c 2 -i 7 -a 2 -x {1.0 5.0 2 ------- null}
h -t 4.48502248 -s 3 -d 5 -p tcp -e 1000 -c 2 -i 7 -a 2 -x {1.0 5.0 -1 ------- null}
r -t 4.784012 -s 3 -d 5 -p tcp -e 1000 -c 2 -i 5 -a 2 -x {1.0 5.0 0 ------- null}
+ -t 4.784012 -s 5 -d 3 -p ack -e 40 -c 2 -i 9 -a 2 -x {5.0 1.0 0 ------- null}
- -t 4.784012 -s 5 -d 3 -p ack -e 40 -c 2 -i 9 -a 2 -x {5.0 1.0 0 ------- null}
h -t 4.784012 -s 5 -d 3 -p ack -e 40 -c 2 -i 9 -a 2 -x {5.0 1.0 -1 ------- null}
r -t 4.78402 -s 3 -d 5 -p tcp -e 1000 -c 2 -i 6 -a 2 -x {1.0 5.0 1 ------- null}
+ -t 4.78402 -s 5 -d 3 -p ack -e 40 -c 2 -i 10 -a 2 -x {5.0 1.0 1 ------- null}
- -t 4.78402 -s 5 -d 3 -p ack -e 40 -c 2 -i 10 -a 2 -x {5.0 1.0 1 ------- null}
h -t 4.78402 -s 5 -d 3 -p ack -e 40 -c 2 -i 10 -a 2 -x {5.0 1.0 -1 ------- null}
r -t 4.91202496 -s 2 -d 0 -p ack -e 40 -c 1 -i 8 -a 1 -x {4.0 0.0 1 ------- null}
+ -t 4.91202496 -s 0 -d 2 -p tcp -e 1000 -c 1 -i 11 -a 1 -x {0.0 4.0 2 ------- null}
- -t 4.91202496 -s 0 -d 2 -p tcp -e 1000 -c 1 -i 11 -a 1 -x {0.0 4.0 2 ------- null}
h -t 4.91202496 -s 0 -d 2 -p tcp -e 1000 -c 1 -i 11 -a 1 -x {0.0 4.0 -1 ------- null}
+ -t 4.91202496 -s 0 -d 2 -p tcp -e 1000 -c 1 -i 12 -a 1 -x {0.0 4.0 3 ------- null}
+ -t 4.91202496 -s 0 -d 2 -p tcp -e 1000 -c 1 -i 13 -a 1 -x {0.0 4.0 4 ------- null}
- -t 4.91202696 -s 0 -d 2 -p tcp -e 1000 -c 1 -i 12 -a 1 -x {0.0 4.0 3 ------- null}
h -t 4.91202696 -s 0 -d 2 -p tcp -e 1000 -c 1 -i 12 -a 1 -x {0.0 4.0 -1 ------- null}
- -t 4.91202896 -s 0 -d 2 -p tcp -e 1000 -c 1 -i 13 -a 1 -x {0.0 4.0 4 ------- null}
h -t 4.91202896 -s 0 -d 2 -p tcp -e 1000 -c 1 -i 13 -a 1 -x {0.0 4.0 -1 ------- null}
r -t 5.35202448 -s 3 -d 5 -p tcp -e 1000 -c 2 -i 7 -a 2 -x {1.0 5.0 2 ------- null}
+ -t 5.35202448 -s 5 -d 3 -p ack -e 40 -c 2 -i 14 -a 2 -x {5.0 1.0 2 ------- null}
- -t 5.35202448 -s 5 -d 3 -p ack -e 40 -c 2 -i 14 -a 2 -x {5.0 1.0 2 ------- null}
h -t 5.35202448 -s 5 -d 3 -p ack -e 40 -c 2 -i 14 -a 2 -x {5.0 1.0 -1 ------- null}
r -t 5.50102696 -s 0 -d 2 -p tcp -e 1000 -c 1 -i 11 -a 1 -x {0.0 4.0 2 ------- null}
+ -t 5.50102696 -s 2 -d 3 -p tcp -e 1000 -c 1 -i 11 -a 1 -x {0.0 4.0 2 ------- null}
- -t 5.50102696 -s 2 -d 3 -p tcp -e 1000 -c 1 -i 11 -a 1 -x {0.0 4.0 2 ------- null}
h -t 5.50102696 -s 2 -d 3 -p tcp -e 1000 -c 1 -i 11 -a 1 -x {0.0 4.0 -1 ------- null}
r -t 5.50102896 -s 0 -d 2 -p tcp -e 1000 -c 1 -i 12 -a 1 -x {0.0 4.0 3 ------- null}
+ -t 5.50102896 -s 2 -d 3 -p tcp -e 1000 -c 1 -i 12 -a 1 -x {0.0 4.0 3 ------- null}
r -t 5.50103096 -s 0 -d 2 -p tcp -e 1000 -c 1 -i 13 -a 1 -x {0.0 4.0 4 ------- null}
+ -t 5.50103096 -s 2 -d 3 -p tcp -e 1000 -c 1 -i 13 -a 1 -x {0.0 4.0 4 ------- null}
- -t 5.50103496 -s 2 -d 3 -p tcp -e 1000 -c 1 -i 12 -a 1 -x {0.0 4.0 3 ------- null}
h -t 5.50103496 -s 2 -d 3 -p tcp -e 1000 -c 1 -i 12 -a 1 -x {0.0 4.0 -1 ------- null}
- -t 5.50104296 -s 2 -d 3 -p tcp -e 1000 -c 1 -i 13 -a 1 -x {0.0 4.0 4 ------- null}
h -t 5.50104296 -s 2 -d 3 -p tcp -e 1000 -c 1 -i 13 -a 1 -x {0.0 4.0 -1 ------- null}
r -t 5.55103496 -s 2 -d 3 -p tcp -e 1000 -c 1 -i 11 -a 1 -x {0.0 4.0 2 ------- null}
+ -t 5.55103496 -s 3 -d 4 -p tcp -e 1000 -c 1 -i 11 -a 1 -x {0.0 4.0 2 ------- null}
- -t 5.55103496 -s 3 -d 4 -p tcp -e 1000 -c 1 -i 11 -a 1 -x {0.0 4.0 2 ------- null}
h -t 5.55103496 -s 3 -d 4 -p tcp -e 1000 -c 1 -i 11 -a 1 -x {0.0 4.0 -1 ------- null}
r -t 5.55104296 -s 2 -d 3 -p tcp -e 1000 -c 1 -i 12 -a 1 -x {0.0 4.0 3 ------- null}
+ -t 5.55104296 -s 3 -d 4 -p tcp -e 1000 -c 1 -i 12 -a 1 -x {0.0 4.0 3 ------- null}
- -t 5.55104296 -s 3 -d 4 -p tcp -e 1000 -c 1 -i 12 -a 1 -x {0.0 4.0 3 ------- null}
h -t 5.55104296 -s 3 -d 4 -p tcp -e 1000 -c 1 -i 12 -a 1 -x {0.0 4.0 -1 ------- null}
r -t 5.55105096 -s 2 -d 3 -p tcp -e 1000 -c 1 -i 13 -a 1 -x {0.0 4.0 4 ------- null}
+ -t 5.55105096 -s 3 -d 4 -p tcp -e 1000 -c 1 -i 13 -a 1 -x {0.0 4.0 4 ------- null}
- -t 5.55105096 -s 3 -d 4 -p tcp -e 1000 -c 1 -i 13 -a 1 -x {0.0 4.0 4 ------- null}
h -t 5.55105096 -s 3 -d 4 -p tcp -e 1000 -c 1 -i 13 -a 1 -x {0.0 4.0 -1 ------- null}
r -t 5.65101208 -s 5 -d 3 -p ack -e 40 -c 2 -i 9 -a 2 -x {5.0 1.0 0 ------- null}
+ -t 5.65101208 -s 3 -d 2 -p ack -e 40 -c 2 -i 9 -a 2 -x {5.0 1.0 0 ------- null}
- -t 5.65101208 -s 3 -d 2 -p ack -e 40 -c 2 -i 9 -a 2 -x {5.0 1.0 0 ------- null}
h -t 5.65101208 -s 3 -d 2 -p ack -e 40 -c 2 -i 9 -a 2 -x {5.0 1.0 -1 ------- null}
r -t 5.65102008 -s 5 -d 3 -p ack -e 40 -c 2 -i 10 -a 2 -x {5.0 1.0 1 ------- null}
+ -t 5.65102008 -s 3 -d 2 -p ack -e 40 -c 2 -i 10 -a 2 -x {5.0 1.0 1 ------- null}
- -t 5.65102008 -s 3 -d 2 -p ack -e 40 -c 2 -i 10 -a 2 -x {5.0 1.0 1 ------- null}
h -t 5.65102008 -s 3 -d 2 -p ack -e 40 -c 2 -i 10 -a 2 -x {5.0 1.0 -1 ------- null}
r -t 5.7010124 -s 3 -d 2 -p ack -e 40 -c 2 -i 9 -a 2 -x {5.0 1.0 0 ------- null}
+ -t 5.7010124 -s 2 -d 1 -p ack -e 40 -c 2 -i 9 -a 2 -x {5.0 1.0 0 ------- null}
- -t 5.7010124 -s 2 -d 1 -p ack -e 40 -c 2 -i 9 -a 2 -x {5.0 1.0 0 ------- null}
h -t 5.7010124 -s 2 -d 1 -p ack -e 40 -c 2 -i 9 -a 2 -x {5.0 1.0 -1 ------- null}
r -t 5.7010204 -s 3 -d 2 -p ack -e 40 -c 2 -i 10 -a 2 -x {5.0 1.0 1 ------- null}
+ -t 5.7010204 -s 2 -d 1 -p ack -e 40 -c 2 -i 10 -a 2 -x {5.0 1.0 1 ------- null}
- -t 5.7010204 -s 2 -d 1 -p ack -e 40 -c 2 -i 10 -a 2 -x {5.0 1.0 1 ------- null}
h -t 5.7010204 -s 2 -d 1 -p ack -e 40 -c 2 -i 10 -a 2 -x {5.0 1.0 -1 ------- null}
r -t 6.14003696 -s 3 -d 4 -p tcp -e 1000 -c 1 -i 11 -a 1 -x {0.0 4.0 2 ------- null}
+ -t 6.14003696 -s 4 -d 3 -p ack -e 40 -c 1 -i 15 -a 1 -x {4.0 0.0 2 ------- null}
- -t 6.14003696 -s 4 -d 3 -p ack -e 40 -c 1 -i 15 -a 1 -x {4.0 0.0 2 ------- null}
h -t 6.14003696 -s 4 -d 3 -p ack -e 40 -c 1 -i 15 -a 1 -x {4.0 0.0 -1 ------- null}
r -t 6.14004496 -s 3 -d 4 -p tcp -e 1000 -c 1 -i 12 -a 1 -x {0.0 4.0 3 ------- null}
+ -t 6.14004496 -s 4 -d 3 -p ack -e 40 -c 1 -i 16 -a 1 -x {4.0 0.0 3 ------- null}
- -t 6.14004496 -s 4 -d 3 -p ack -e 40 -c 1 -i 16 -a 1 -x {4.0 0.0 3 ------- null}
h -t 6.14004496 -s 4 -d 3 -p ack -e 40 -c 1 -i 16 -a 1 -x {4.0 0.0 -1 ------- null}
r -t 6.14005296 -s 3 -d 4 -p tcp -e 1000 -c 1 -i 13 -a 1 -x {0.0 4.0 4 ------- null}
+ -t 6.14005296 -s 4 -d 3 -p ack -e 40 -c 1 -i 17 -a 1 -x {4.0 0.0 4 ------- null}
- -t 6.14005296 -s 4 -d 3 -p ack -e 40 -c 1 -i 17 -a 1 -x {4.0 0.0 4 ------- null}
h -t 6.14005296 -s 4 -d 3 -p ack -e 40 -c 1 -i 17 -a 1 -x {4.0 0.0 -1 ------- null}
r -t 6.21902456 -s 5 -d 3 -p ack -e 40 -c 2 -i 14 -a 2 -x {5.0 1.0 2 ------- null}
+ -t 6.21902456 -s 3 -d 2 -p ack -e 40 -c 2 -i 14 -a 2 -x {5.0 1.0 2 ------- null}
- -t 6.21902456 -s 3 -d 2 -p ack -e 40 -c 2 -i 14 -a 2 -x {5.0 1.0 2 ------- null}
h -t 6.21902456 -s 3 -d 2 -p ack -e 40 -c 2 -i 14 -a 2 -x {5.0 1.0 -1 ------- null}
r -t 6.26902488 -s 3 -d 2 -p ack -e 40 -c 2 -i 14 -a 2 -x {5.0 1.0 2 ------- null}
+ -t 6.26902488 -s 2 -d 1 -p ack -e 40 -c 2 -i 14 -a 2 -x {5.0 1.0 2 ------- null}
- -t 6.26902488 -s 2 -d 1 -p ack -e 40 -c 2 -i 14 -a 2 -x {5.0 1.0 2 ------- null}
h -t 6.26902488 -s 2 -d 1 -p ack -e 40 -c 2 -i 14 -a 2 -x {5.0 1.0 -1 ------- null}
r -t 6.56801248 -s 2 -d 1 -p ack -e 40 -c 2 -i 9 -a 2 -x {5.0 1.0 0 ------- null}
r -t 6.56802048 -s 2 -d 1 -p ack -e 40 -c 2 -i 10 -a 2 -x {5.0 1.0 1 ------- null}
+ -t 6.56802048 -s 1 -d 2 -p tcp -e 1000 -c 2 -i 18 -a 2 -x {1.0 5.0 3 ------- null}
- -t 6.56802048 -s 1 -d 2 -p tcp -e 1000 -c 2 -i 18 -a 2 -x {1.0 5.0 3 ------- null}
h -t 6.56802048 -s 1 -d 2 -p tcp -e 1000 -c 2 -i 18 -a 2 -x {1.0 5.0 -1 ------- null}
r -t 6.72903704 -s 4 -d 3 -p ack -e 40 -c 1 -i 15 -a 1 -x {4.0 0.0 2 ------- null}
+ -t 6.72903704 -s 3 -d 2 -p ack -e 40 -c 1 -i 15 -a 1 -x {4.0 0.0 2 ------- null}
- -t 6.72903704 -s 3 -d 2 -p ack -e 40 -c 1 -i 15 -a 1 -x {4.0 0.0 2 ------- null}
h -t 6.72903704 -s 3 -d 2 -p ack -e 40 -c 1 -i 15 -a 1 -x {4.0 0.0 -1 ------- null}
r -t 6.72904504 -s 4 -d 3 -p ack -e 40 -c 1 -i 16 -a 1 -x {4.0 0.0 3 ------- null}
+ -t 6.72904504 -s 3 -d 2 -p ack -e 40 -c 1 -i 16 -a 1 -x {4.0 0.0 3 ------- null}
- -t 6.72904504 -s 3 -d 2 -p ack -e 40 -c 1 -i 16 -a 1 -x {4.0 0.0 3 ------- null}
h -t 6.72904504 -s 3 -d 2 -p ack -e 40 -c 1 -i 16 -a 1 -x {4.0 0.0 -1 ------- null}
r -t 6.72905304 -s 4 -d 3 -p ack -e 40 -c 1 -i 17 -a 1 -x {4.0 0.0 4 ------- null}
+ -t 6.72905304 -s 3 -d 2 -p ack -e 40 -c 1 -i 17 -a 1 -x {4.0 0.0 4 ------- null}
- -t 6.72905304 -s 3 -d 2 -p ack -e 40 -c 1 -i 17 -a 1 -x {4.0 0.0 4 ------- null}
h -t 6.72905304 -s 3 -d 2 -p ack -e 40 -c 1 -i 17 -a 1 -x {4.0 0.0 -1 ------- null}
r -t 6.77903736 -s 3 -d 2 -p ack -e 40 -c 1 -i 15 -a 1 -x {4.0 0.0 2 ------- null}
+ -t 6.77903736 -s 2 -d 0 -p ack -e 40 -c 1 -i 15 -a 1 -x {4.0 0.0 2 ------- null}
- -t 6.77903736 -s 2 -d 0 -p ack -e 40 -c 1 -i 15 -a 1 -x {4.0 0.0 2 ------- null}
h -t 6.77903736 -s 2 -d 0 -p ack -e 40 -c 1 -i 15 -a 1 -x {4.0 0.0 -1 ------- null}
r -t 6.77904536 -s 3 -d 2 -p ack -e 40 -c 1 -i 16 -a 1 -x {4.0 0.0 3 ------- null}
+ -t 6.77904536 -s 2 -d 0 -p ack -e 40 -c 1 -i 16 -a 1 -x {4.0 0.0 3 ------- null}
- -t 6.77904536 -s 2 -d 0 -p ack -e 40 -c 1 -i 16 -a 1 -x {4.0 0.0 3 ------- null}
h -t 6.77904536 -s 2 -d 0 -p ack -e 40 -c 1 -i 16 -a 1 -x {4.0 0.0 -1 ------- null}
r -t 6.77905336 -s 3 -d 2 -p ack -e 40 -c 1 -i 17 -a 1 -x {4.0 0.0 4 ------- null}
+ -t 6.77905336 -s 2 -d 0 -p ack -e 40 -c 1 -i 17 -a 1 -x {4.0 0.0 4 ------- null}
- -t 6.77905336 -s 2 -d 0 -p ack -e 40 -c 1 -i 17 -a 1 -x {4.0 0.0 4 ------- null}
h -t 6.77905336 -s 2 -d 0 -p ack -e 40 -c 1 -i 17 -a 1 -x {4.0 0.0 -1 ------- null}
r -t 7.13602496 -s 2 -d 1 -p ack -e 40 -c 2 -i 14 -a 2 -x {5.0 1.0 2 ------- null}
+ -t 7.13602496 -s 1 -d 2 -p tcp -e 1000 -c 2 -i 19 -a 2 -x {1.0 5.0 4 ------- null}
- -t 7.13602496 -s 1 -d 2 -p tcp -e 1000 -c 2 -i 19 -a 2 -x {1.0 5.0 4 ------- null}
h -t 7.13602496 -s 1 -d 2 -p tcp -e 1000 -c 2 -i 19 -a 2 -x {1.0 5.0 -1 ------- null}
r -t 7.36803744 -s 2 -d 0 -p ack -e 40 -c 1 -i 15 -a 1 -x {4.0 0.0 2 ------- null}
+ -t 7.36803744 -s 0 -d 2 -p tcp -e 1000 -c 1 -i 20 -a 1 -x {0.0 4.0 5 ------- null}
- -t 7.36803744 -s 0 -d 2 -p tcp -e 1000 -c 1 -i 20 -a 1 -x {0.0 4.0 5 ------- null}
h -t 7.36803744 -s 0 -d 2 -p tcp -e 1000 -c 1 -i 20 -a 1 -x {0.0 4.0 -1 ------- null}
r -t 7.36804544 -s 2 -d 0 -p ack -e 40 -c 1 -i 16 -a 1 -x {4.0 0.0 3 ------- null}
+ -t 7.36804544 -s 0 -d 2 -p tcp -e 1000 -c 1 -i 21 -a 1 -x {0.0 4.0 6 ------- null}
- -t 7.36804544 -s 0 -d 2 -p tcp -e 1000 -c 1 -i 21 -a 1 -x {0.0 4.0 6 ------- null}
h -t 7.36804544 -s 0 -d 2 -p tcp -e 1000 -c 1 -i 21 -a 1 -x {0.0 4.0 -1 ------- null}
r -t 7.36805344 -s 2 -d 0 -p ack -e 40 -c 1 -i 17 -a 1 -x {4.0 0.0 4 ------- null}
+ -t 7.36805344 -s 0 -d 2 -p tcp -e 1000 -c 1 -i 22 -a 1 -x {0.0 4.0 7 ------- null}
- -t 7.36805344 -s 0 -d 2 -p tcp -e 1000 -c 1 -i 22 -a 1 -x {0.0 4.0 7 ------- null}
h -t 7.36805344 -s 0 -d 2 -p tcp -e 1000 -c 1 -i 22 -a 1 -x {0.0 4.0 -1 ------- null}
r -t 7.43502248 -s 1 -d 2 -p tcp -e 1000 -c 2 -i 18 -a 2 -x {1.0 5.0 3 ------- null}
+ -t 7.43502248 -s 2 -d 3 -p tcp -e 1000 -c 2 -i 18 -a 2 -x {1.0 5.0 3 ------- null}
- -t 7.43502248 -s 2 -d 3 -p tcp -e 1000 -c 2 -i 18 -a 2 -x {1.0 5.0 3 ------- null}
h -t 7.43502248 -s 2 -d 3 -p tcp -e 1000 -c 2 -i 18 -a 2 -x {1.0 5.0 -1 ------- null}
r -t 7.48503048 -s 2 -d 3 -p tcp -e 1000 -c 2 -i 18 -a 2 -x {1.0 5.0 3 ------- null}
+ -t 7.48503048 -s 3 -d 5 -p tcp -e 1000 -c 2 -i 18 -a 2 -x {1.0 5.0 3 ------- null}
- -t 7.48503048 -s 3 -d 5 -p tcp -e 1000 -c 2 -i 18 -a 2 -x {1.0 5.0 3 ------- null}
h -t 7.48503048 -s 3 -d 5 -p tcp -e 1000 -c 2 -i 18 -a 2 -x {1.0 5.0 -1 ------- null}
r -t 7.95703944 -s 0 -d 2 -p tcp -e 1000 -c 1 -i 20 -a 1 -x {0.0 4.0 5 ------- null}
+ -t 7.95703944 -s 2 -d 3 -p tcp -e 1000 -c 1 -i 20 -a 1 -x {0.0 4.0 5 ------- null}
- -t 7.95703944 -s 2 -d 3 -p tcp -e 1000 -c 1 -i 20 -a 1 -x {0.0 4.0 5 ------- null}
h -t 7.95703944 -s 2 -d 3 -p tcp -e 1000 -c 1 -i 20 -a 1 -x {0.0 4.0 -1 ------- null}
r -t 7.95704744 -s 0 -d 2 -p tcp -e 1000 -c 1 -i 21 -a 1 -x {0.0 4.0 6 ------- null}
+ -t 7.95704744 -s 2 -d 3 -p tcp -e 1000 -c 1 -i 21 -a 1 -x {0.0 4.0 6 ------- null}
- -t 7.95704744 -s 2 -d 3 -p tcp -e 1000 -c 1 -i 21 -a 1 -x {0.0 4.0 6 ------- null}
h -t 7.95704744 -s 2 -d 3 -p tcp -e 1000 -c 1 -i 21 -a 1 -x {0.0 4.0 -1 ------- null}
r -t 7.95705544 -s 0 -d 2 -p tcp -e 1000 -c 1 -i 22 -a 1 -x {0.0 4.0 7 ------- null}
+ -t 7.95705544 -s 2 -d 3 -p tcp -e 1000 -c 1 -i 22 -a 1 -x {0.0 4.0 7 ------- null}
- -t 7.95705544 -s 2 -d 3 -p tcp -e 1000 -c 1 -i 22 -a 1 -x {0.0 4.0 7 ------- null}
h -t 7.95705544 -s 2 -d 3 -p tcp -e 1000 -c 1 -i 22 -a 1 -x {0.0 4.0 -1 ------- null}
r -t 8.00302696 -s 1 -d 2 -p tcp -e 1000 -c 2 -i 19 -a 2 -x {1.0 5.0 4 ------- null}
+ -t 8.00302696 -s 2 -d 3 -p tcp -e 1000 -c 2 -i 19 -a 2 -x {1.0 5.0 4 ------- null}
- -t 8.00302696 -s 2 -d 3 -p tcp -e 1000 -c 2 -i 19 -a 2 -x {1.0 5.0 4 ------- null}
h -t 8.00302696 -s 2 -d 3 -p tcp -e 1000 -c 2 -i 19 -a 2 -x {1.0 5.0 -1 ------- null}
r -t 8.00704744 -s 2 -d 3 -p tcp -e 1000 -c 1 -i 20 -a 1 -x {0.0 4.0 5 ------- null}
+ -t 8.00704744 -s 3 -d 4 -p tcp -e 1000 -c 1 -i 20 -a 1 -x {0.0 4.0 5 ------- null}
- -t 8.00704744 -s 3 -d 4 -p tcp -e 1000 -c 1 -i 20 -a 1 -x {0.0 4.0 5 ------- null}
h -t 8.00704744 -s 3 -d 4 -p tcp -e 1000 -c 1 -i 20 -a 1 -x {0.0 4.0 -1 ------- null}
r -t 8.00705544 -s 2 -d 3 -p tcp -e 1000 -c 1 -i 21 -a 1 -x {0.0 4.0 6 ------- null}
+ -t 8.00705544 -s 3 -d 4 -p tcp -e 1000 -c 1 -i 21 -a 1 -x {0.0 4.0 6 ------- null}
- -t 8.00705544 -s 3 -d 4 -p tcp -e 1000 -c 1 -i 21 -a 1 -x {0.0 4.0 6 ------- null}
h -t 8.00705544 -s 3 -d 4 -p tcp -e 1000 -c 1 -i 21 -a 1 -x {0.0 4.0 -1 ------- null}
r -t 8.00706344 -s 2 -d 3 -p tcp -e 1000 -c 1 -i 22 -a 1 -x {0.0 4.0 7 ------- null}
+ -t 8.00706344 -s 3 -d 4 -p tcp -e 1000 -c 1 -i 22 -a 1 -x {0.0 4.0 7 ------- null}
- -t 8.00706344 -s 3 -d 4 -p tcp -e 1000 -c 1 -i 22 -a 1 -x {0.0 4.0 7 ------- null}
h -t 8.00706344 -s 3 -d 4 -p tcp -e 1000 -c 1 -i 22 -a 1 -x {0.0 4.0 -1 ------- null}
r -t 8.05303496 -s 2 -d 3 -p tcp -e 1000 -c 2 -i 19 -a 2 -x {1.0 5.0 4 ------- null}
+ -t 8.05303496 -s 3 -d 5 -p tcp -e 1000 -c 2 -i 19 -a 2 -x {1.0 5.0 4 ------- null}
- -t 8.05303496 -s 3 -d 5 -p tcp -e 1000 -c 2 -i 19 -a 2 -x {1.0 5.0 4 ------- null}
h -t 8.05303496 -s 3 -d 5 -p tcp -e 1000 -c 2 -i 19 -a 2 -x {1.0 5.0 -1 ------- null}
r -t 8.35203248 -s 3 -d 5 -p tcp -e 1000 -c 2 -i 18 -a 2 -x {1.0 5.0 3 ------- null}
+ -t 8.35203248 -s 5 -d 3 -p ack -e 40 -c 2 -i 23 -a 2 -x {5.0 1.0 3 ------- null}
- -t 8.35203248 -s 5 -d 3 -p ack -e 40 -c 2 -i 23 -a 2 -x {5.0 1.0 3 ------- null}
h -t 8.35203248 -s 5 -d 3 -p ack -e 40 -c 2 -i 23 -a 2 -x {5.0 1.0 -1 ------- null}
r -t 8.59604944 -s 3 -d 4 -p tcp -e 1000 -c 1 -i 20 -a 1 -x {0.0 4.0 5 ------- null}
+ -t 8.59604944 -s 4 -d 3 -p ack -e 40 -c 1 -i 24 -a 1 -x {4.0 0.0 5 ------- null}
- -t 8.59604944 -s 4 -d 3 -p ack -e 40 -c 1 -i 24 -a 1 -x {4.0 0.0 5 ------- null}
h -t 8.59604944 -s 4 -d 3 -p ack -e 40 -c 1 -i 24 -a 1 -x {4.0 0.0 -1 ------- null}
r -t 8.59605744 -s 3 -d 4 -p tcp -e 1000 -c 1 -i 21 -a 1 -x {0.0 4.0 6 ------- null}
+ -t 8.59605744 -s 4 -d 3 -p ack -e 40 -c 1 -i 25 -a 1 -x {4.0 0.0 6 ------- null}
- -t 8.59605744 -s 4 -d 3 -p ack -e 40 -c 1 -i 25 -a 1 -x {4.0 0.0 6 ------- null}
h -t 8.59605744 -s 4 -d 3 -p ack -e 40 -c 1 -i 25 -a 1 -x {4.0 0.0 -1 ------- null}
r -t 8.59606544 -s 3 -d 4 -p tcp -e 1000 -c 1 -i 22 -a 1 -x {0.0 4.0 7 ------- null}
+ -t 8.59606544 -s 4 -d 3 -p ack -e 40 -c 1 -i 26 -a 1 -x {4.0 0.0 7 ------- null}
- -t 8.59606544 -s 4 -d 3 -p ack -e 40 -c 1 -i 26 -a 1 -x {4.0 0.0 7 ------- null}
h -t 8.59606544 -s 4 -d 3 -p ack -e 40 -c 1 -i 26 -a 1 -x {4.0 0.0 -1 ------- null}
r -t 8.92003696 -s 3 -d 5 -p tcp -e 1000 -c 2 -i 19 -a 2 -x {1.0 5.0 4 ------- null}
+ -t 8.92003696 -s 5 -d 3 -p ack -e 40 -c 2 -i 27 -a 2 -x {5.0 1.0 4 ------- null}
- -t 8.92003696 -s 5 -d 3 -p ack -e 40 -c 2 -i 27 -a 2 -x {5.0 1.0 4 ------- null}
h -t 8.92003696 -s 5 -d 3 -p ack -e 40 -c 2 -i 27 -a 2 -x {5.0 1.0 -1 ------- null}
r -t 9.18504952 -s 4 -d 3 -p ack -e 40 -c 1 -i 24 -a 1 -x {4.0 0.0 5 ------- null}
+ -t 9.18504952 -s 3 -d 2 -p ack -e 40 -c 1 -i 24 -a 1 -x {4.0 0.0 5 ------- null}
- -t 9.18504952 -s 3 -d 2 -p ack -e 40 -c 1 -i 24 -a 1 -x {4.0 0.0 5 ------- null}
h -t 9.18504952 -s 3 -d 2 -p ack -e 40 -c 1 -i 24 -a 1 -x {4.0 0.0 -1 ------- null}
r -t 9.18505752 -s 4 -d 3 -p ack -e 40 -c 1 -i 25 -a 1 -x {4.0 0.0 6 ------- null}
+ -t 9.18505752 -s 3 -d 2 -p ack -e 40 -c 1 -i 25 -a 1 -x {4.0 0.0 6 ------- null}
- -t 9.18505752 -s 3 -d 2 -p ack -e 40 -c 1 -i 25 -a 1 -x {4.0 0.0 6 ------- null}
h -t 9.18505752 -s 3 -d 2 -p ack -e 40 -c 1 -i 25 -a 1 -x {4.0 0.0 -1 ------- null}
r -t 9.18506552 -s 4 -d 3 -p ack -e 40 -c 1 -i 26 -a 1 -x {4.0 0.0 7 ------- null}
+ -t 9.18506552 -s 3 -d 2 -p ack -e 40 -c 1 -i 26 -a 1 -x {4.0 0.0 7 ------- null}
- -t 9.18506552 -s 3 -d 2 -p ack -e 40 -c 1 -i 26 -a 1 -x {4.0 0.0 7 ------- null}
h -t 9.18506552 -s 3 -d 2 -p ack -e 40 -c 1 -i 26 -a 1 -x {4.0 0.0 -1 ------- null}
r -t 9.21903256 -s 5 -d 3 -p ack -e 40 -c 2 -i 23 -a 2 -x {5.0 1.0 3 ------- null}
+ -t 9.21903256 -s 3 -d 2 -p ack -e 40 -c 2 -i 23 -a 2 -x {5.0 1.0 3 ------- null}
- -t 9.21903256 -s 3 -d 2 -p ack -e 40 -c 2 -i 23 -a 2 -x {5.0 1.0 3 ------- null}
h -t 9.21903256 -s 3 -d 2 -p ack -e 40 -c 2 -i 23 -a 2 -x {5.0 1.0 -1 ------- null}
r -t 9.23504984 -s 3 -d 2 -p ack -e 40 -c 1 -i 24 -a 1 -x {4.0 0.0 5 ------- null}
+ -t 9.23504984 -s 2 -d 0 -p ack -e 40 -c 1 -i 24 -a 1 -x {4.0 0.0 5 ------- null}
- -t 9.23504984 -s 2 -d 0 -p ack -e 40 -c 1 -i 24 -a 1 -x {4.0 0.0 5 ------- null}
h -t 9.23504984 -s 2 -d 0 -p ack -e 40 -c 1 -i 24 -a 1 -x {4.0 0.0 -1 ------- null}
r -t 9.23505784 -s 3 -d 2 -p ack -e 40 -c 1 -i 25 -a 1 -x {4.0 0.0 6 ------- null}
+ -t 9.23505784 -s 2 -d 0 -p ack -e 40 -c 1 -i 25 -a 1 -x {4.0 0.0 6 ------- null}
- -t 9.23505784 -s 2 -d 0 -p ack -e 40 -c 1 -i 25 -a 1 -x {4.0 0.0 6 ------- null}
h -t 9.23505784 -s 2 -d 0 -p ack -e 40 -c 1 -i 25 -a 1 -x {4.0 0.0 -1 ------- null}
r -t 9.23506584 -s 3 -d 2 -p ack -e 40 -c 1 -i 26 -a 1 -x {4.0 0.0 7 ------- null}
+ -t 9.23506584 -s 2 -d 0 -p ack -e 40 -c 1 -i 26 -a 1 -x {4.0 0.0 7 ------- null}
- -t 9.23506584 -s 2 -d 0 -p ack -e 40 -c 1 -i 26 -a 1 -x {4.0 0.0 7 ------- null}
h -t 9.23506584 -s 2 -d 0 -p ack -e 40 -c 1 -i 26 -a 1 -x {4.0 0.0 -1 ------- null}
r -t 9.26903288 -s 3 -d 2 -p ack -e 40 -c 2 -i 23 -a 2 -x {5.0 1.0 3 ------- null}
+ -t 9.26903288 -s 2 -d 1 -p ack -e 40 -c 2 -i 23 -a 2 -x {5.0 1.0 3 ------- null}
- -t 9.26903288 -s 2 -d 1 -p ack -e 40 -c 2 -i 23 -a 2 -x {5.0 1.0 3 ------- null}
h -t 9.26903288 -s 2 -d 1 -p ack -e 40 -c 2 -i 23 -a 2 -x {5.0 1.0 -1 ------- null}
r -t 9.78703704 -s 5 -d 3 -p ack -e 40 -c 2 -i 27 -a 2 -x {5.0 1.0 4 ------- null}
+ -t 9.78703704 -s 3 -d 2 -p ack -e 40 -c 2 -i 27 -a 2 -x {5.0 1.0 4 ------- null}
- -t 9.78703704 -s 3 -d 2 -p ack -e 40 -c 2 -i 27 -a 2 -x {5.0 1.0 4 ------- null}
h -t 9.78703704 -s 3 -d 2 -p ack -e 40 -c 2 -i 27 -a 2 -x {5.0 1.0 -1 ------- null}
r -t 9.82404992 -s 2 -d 0 -p ack -e 40 -c 1 -i 24 -a 1 -x {4.0 0.0 5 ------- null}
+ -t 9.82404992 -s 0 -d 2 -p tcp -e 1000 -c 1 -i 28 -a 1 -x {0.0 4.0 8 ------- null}
- -t 9.82404992 -s 0 -d 2 -p tcp -e 1000 -c 1 -i 28 -a 1 -x {0.0 4.0 8 ------- null}
h -t 9.82404992 -s 0 -d 2 -p tcp -e 1000 -c 1 -i 28 -a 1 -x {0.0 4.0 -1 ------- null}
+ -t 9.82404992 -s 0 -d 2 -p tcp -e 1000 -c 1 -i 29 -a 1 -x {0.0 4.0 9 ------- null}
- -t 9.82405192 -s 0 -d 2 -p tcp -e 1000 -c 1 -i 29 -a 1 -x {0.0 4.0 9 ------- null}
h -t 9.82405192 -s 0 -d 2 -p tcp -e 1000 -c 1 -i 29 -a 1 -x {0.0 4.0 -1 ------- null}
r -t 9.82405792 -s 2 -d 0 -p ack -e 40 -c 1 -i 25 -a 1 -x {4.0 0.0 6 ------- null}
+ -t 9.82405792 -s 0 -d 2 -p tcp -e 1000 -c 1 -i 30 -a 1 -x {0.0 4.0 10 ------- null}
- -t 9.82405792 -s 0 -d 2 -p tcp -e 1000 -c 1 -i 30 -a 1 -x {0.0 4.0 10 ------- null}
h -t 9.82405792 -s 0 -d 2 -p tcp -e 1000 -c 1 -i 30 -a 1 -x {0.0 4.0 -1 ------- null}
+ -t 9.82405792 -s 0 -d 2 -p tcp -e 1000 -c 1 -i 31 -a 1 -x {0.0 4.0 11 ------- null}
- -t 9.82405992 -s 0 -d 2 -p tcp -e 1000 -c 1 -i 31 -a 1 -x {0.0 4.0 11 ------- null}
h -t 9.82405992 -s 0 -d 2 -p tcp -e 1000 -c 1 -i 31 -a 1 -x {0.0 4.0 -1 ------- null}
r -t 9.82406592 -s 2 -d 0 -p ack -e 40 -c 1 -i 26 -a 1 -x {4.0 0.0 7 ------- null}
+ -t 9.82406592 -s 0 -d 2 -p tcp -e 1000 -c 1 -i 32 -a 1 -x {0.0 4.0 12 ------- null}
- -t 9.82406592 -s 0 -d 2 -p tcp -e 1000 -c 1 -i 32 -a 1 -x {0.0 4.0 12 ------- null}
h -t 9.82406592 -s 0 -d 2 -p tcp -e 1000 -c 1 -i 32 -a 1 -x {0.0 4.0 -1 ------- null}
+ -t 9.82406592 -s 0 -d 2 -p tcp -e 1000 -c 1 -i 33 -a 1 -x {0.0 4.0 13 ------- null}
- -t 9.82406792 -s 0 -d 2 -p tcp -e 1000 -c 1 -i 33 -a 1 -x {0.0 4.0 13 ------- null}
h -t 9.82406792 -s 0 -d 2 -p tcp -e 1000 -c 1 -i 33 -a 1 -x {0.0 4.0 -1 ------- null}
r -t 9.83703736 -s 3 -d 2 -p ack -e 40 -c 2 -i 27 -a 2 -x {5.0 1.0 4 ------- null}