0.00000  0  0  4  0  cwnd_ 1.000 
0.00000  0  0  4  0  ssthresh_ 20
0.00000  0  0  4  0  ack_ -1
0.00000  0  0  4  0  maxseq_ -1
0.00000  0  0  4  0  rtt_ 0.000 
0.00000  1  0  5  0  cwnd_ 1.000 
0.00000  1  0  5  0  ssthresh_ 20
0.00000  1  0  5  0  ack_ -1
0.00000  1  0  5  0  maxseq_ -1
0.00000  1  0  5  0  rtt_ 0.000 
0.00000  0  0  4  0  ssthresh_ 1000
0.00000  1  0  5  0  ssthresh_ 1000
+ 0 1 2 tcp 1000 ------- 2 1.0 5.0 0 0
- 0 1 2 tcp 1000 ------- 2 1.0 5.0 0 0
0.00000  1  0  5  0  maxseq_ 0
+ 0 0 2 tcp 1000 ------- 1 0.0 4.0 0 1
- 0 0 2 tcp 1000 ------- 1 0.0 4.0 0 1
0.00000  0  0  4  0  maxseq_ 0
r 0.556002 0 2 tcp 1000 ------- 1 0.0 4.0 0 1
+ 0.556002 2 3 tcp 1000 ------- 1 0.0 4.0 0 1
- 0.556002 2 3 tcp 1000 ------- 1 0.0 4.0 0 1
r 0.60601 2 3 tcp 1000 ------- 1 0.0 4.0 0 1
+ 0.60601 3 4 tcp 1000 ------- 1 0.0 4.0 0 1
- 0.60601 3 4 tcp 1000 ------- 1 0.0 4.0 0 1
r 0.834002 1 2 tcp 1000 ------- 2 1.0 5.0 0 0
+ 0.834002 2 3 tcp 1000 ------- 2 1.0 5.0 0 0
- 0.834002 2 3 tcp 1000 ------- 2 1.0 5.0 0 0
r 0.88401 2 3 tcp 1000 ------- 2 1.0 5.0 0 0
+ 0.88401 3 5 tcp 1000 ------- 2 1.0 5.0 0 0
- 0.88401 3 5 tcp 1000 ------- 2 1.0 5.0 0 0
r 1.162012 3 4 tcp 1000 ------- 1 0.0 4.0 0 1
+ 1.162012 4 3 ack 40 ------- 1 4.0 0.0 0 2
- 1.162012 4 3 ack 40 ------- 1 4.0 0.0 0 2
r 1.718012 3 5 tcp 1000 ------- 2 1.0 5.0 0 0
+ 1.718012 5 3 ack 40 ------- 2 5.0 1.0 0 3
- 1.718012 5 3 ack 40 ------- 2 5.0 1.0 0 3
r 1.718012 4 3 ack 40 ------- 1 4.0 0.0 0 2
+ 1.718012 3 2 ack 40 ------- 1 4.0 0.0 0 2
- 1.718012 3 2 ack 40 ------- 1 4.0 0.0 0 2
r 1.768012 3 2 ack 40 ------- 1 4.0 0.0 0 2
+ 1.768012 2 0 ack 40 ------- 1 4.0 0.0 0 2
- 1.768012 2 0 ack 40 ------- 1 4.0 0.0 0 2
r 2.324012 2 0 ack 40 ------- 1 4.0 0.0 0 2
2.32401  0  0  4  0  ack_ 0
2.32401  0  0  4  0  rtt_ 2.320 
+ 2.324012 0 2 tcp 1000 ------- 1 0.0 4.0 1 4
- 2.324012 0 2 tcp 1000 ------- 1 0.0 4.0 1 4
2.32401  0  0  4  0  maxseq_ 1
r 2.552012 5 3 ack 40 ------- 2 5.0 1.0 0 3
+ 2.552012 3 2 ack 40 ------- 2 5.0 1.0 0 3
- 2.552012 3 2 ack 40 ------- 2 5.0 1.0 0 3
r 2.602012 3 2 ack 40 ------- 2 5.0 1.0 0 3
+ 2.602012 2 1 ack 40 ------- 2 5.0 1.0 0 3
- 2.602012 2 1 ack 40 ------- 2 5.0 1.0 0 3
r 2.880014 0 2 tcp 1000 ------- 1 0.0 4.0 1 4
+ 2.880014 2 3 tcp 1000 ------- 1 0.0 4.0 1 4
- 2.880014 2 3 tcp 1000 ------- 1 0.0 4.0 1 4
r 2.930022 2 3 tcp 1000 ------- 1 0.0 4.0 1 4
+ 2.930022 3 4 tcp 1000 ------- 1 0.0 4.0 1 4
- 2.930022 3 4 tcp 1000 ------- 1 0.0 4.0 1 4
3.00000  1  0  5  0  ssthresh_ 0
3.00000  1  0  5  0  ssthresh_ 2
3.00000  1  0  5  0  cwnd_ 2.000 
+ 3 1 2 tcp 1000 ------- 2 1.0 5.0 0 5
- 3 1 2 tcp 1000 ------- 2 1.0 5.0 0 5
+ 3 1 2 tcp 1000 ------- 2 1.0 5.0 1 6
3.00000  1  0  5  0  maxseq_ 1
- 3.000002 1 2 tcp 1000 ------- 2 1.0 5.0 1 6
r 3.436012 2 1 ack 40 ------- 2 5.0 1.0 0 3
3.43601  1  0  5  0  ack_ 0
3.43601  1  0  5  0  cwnd_ 2.500 
+ 3.436012 1 2 tcp 1000 ------- 2 1.0 5.0 2 7
- 3.436012 1 2 tcp 1000 ------- 2 1.0 5.0 2 7
3.43601  1  0  5  0  maxseq_ 2
r 3.486024 3 4 tcp 1000 ------- 1 0.0 4.0 1 4
+ 3.486024 4 3 ack 40 ------- 1 4.0 0.0 1 8
- 3.486024 4 3 ack 40 ------- 1 4.0 0.0 1 8
r 3.834002 1 2 tcp 1000 ------- 2 1.0 5.0 0 5
+ 3.834002 2 3 tcp 1000 ------- 2 1.0 5.0 0 5
- 3.834002 2 3 tcp 1000 ------- 2 1.0 5.0 0 5
r 3.834004 1 2 tcp 1000 ------- 2 1.0 5.0 1 6
+ 3.834004 2 3 tcp 1000 ------- 2 1.0 5.0 1 6
- 3.83401 2 3 tcp 1000 ------- 2 1.0 5.0 1 6
r 3.88401 2 3 tcp 1000 ------- 2 1.0 5.0 0 5
+ 3.88401 3 5 tcp 1000 ------- 2 1.0 5.0 0 5
- 3.88401 3 5 tcp 1000 ------- 2 1.0 5.0 0 5
r 3.884018 2 3 tcp 1000 ------- 2 1.0 5.0 1 6
+ 3.884018 3 5 tcp 1000 ------- 2 1.0 5.0 1 6
- 3.884018 3 5 tcp 1000 ------- 2 1.0 5.0 1 6
r 4.042025 4 3 ack 40 ------- 1 4.0 0.0 1 8
+ 4.042025 3 2 ack 40 ------- 1 4.0 0.0 1 8
- 4.042025 3 2 ack 40 ------- 1 4.0 0.0 1 8
r 4.092025 3 2 ack 40 ------- 1 4.0 0.0 1 8
+ 4.092025 2 0 ack 40 ------- 1 4.0 0.0 1 8
- 4.092025 2 0 ack 40 ------- 1 4.0 0.0 1 8
r 4.270014 1 2 tcp 1000 ------- 2 1.0 5.0 2 7
+ 4.270014 2 3 tcp 1000 ------- 2 1.0 5.0 2 7
- 4.270014 2 3 tcp 1000 ------- 2 1.0 5.0 2 7
r 4.320022 2 3 tcp 1000 ------- 2 1.0 5.0 2 7
+ 4.320022 3 5 tcp 1000 ------- 2 1.0 5.0 2 7
- 4.320022 3 5 tcp 1000 ------- 2 1.0 5.0 2 7
r 4.648025 2 0 ack 40 ------- 1 4.0 0.0 1 8
4.64802  0  0  4  0  cwnd_ 2.000 
4.64802  0  0  4  0  ack_ 1
4.64802  0  0  4  0  cwnd_ 3.000 
+ 4.648025 0 2 tcp 1000 ------- 1 0.0 4.0 2 9
- 4.648025 0 2 tcp 1000 ------- 1 0.0 4.0 2 9
4.64802  0  0  4  0  maxseq_ 2
+ 4.648025 0 2 tcp 1000 ------- 1 0.0 4.0 3 10
4.64802  0  0  4  0  maxseq_ 3
+ 4.648025 0 2 tcp 1000 ------- 1 0.0 4.0 4 11
4.64802  0  0  4  0  maxseq_ 4
- 4.648027 0 2 tcp 1000 ------- 1 0.0 4.0 3 10
- 4.648029 0 2 tcp 1000 ------- 1 0.0 4.0 4 11
r 4.718012 3 5 tcp 1000 ------- 2 1.0 5.0 0 5
+ 4.718012 5 3 ack 40 ------- 2 5.0 1.0 0 12
- 4.718012 5 3 ack 40 ------- 2 5.0 1.0 0 12
r 4.71802 3 5 tcp 1000 ------- 2 1.0 5.0 1 6
+ 4.71802 5 3 ack 40 ------- 2 5.0 1.0 1 13
- 4.71802 5 3 ack 40 ------- 2 5.0 1.0 1 13
r 5.154024 3 5 tcp 1000 ------- 2 1.0 5.0 2 7
+ 5.154024 5 3 ack 40 ------- 2 5.0 1.0 2 14
- 5.154024 5 3 ack 40 ------- 2 5.0 1.0 2 14
r 5.204027 0 2 tcp 1000 ------- 1 0.0 4.0 2 9
+ 5.204027 2 3 tcp 1000 ------- 1 0.0 4.0 2 9
- 5.204027 2 3 tcp 1000 ------- 1 0.0 4.0 2 9
r 5.204029 0 2 tcp 1000 ------- 1 0.0 4.0 3 10
+ 5.204029 2 3 tcp 1000 ------- 1 0.0 4.0 3 10
r 5.204031 0 2 tcp 1000 ------- 1 0.0 4.0 4 11
+ 5.204031 2 3 tcp 1000 ------- 1 0.0 4.0 4 11
- 5.204035 2 3 tcp 1000 ------- 1 0.0 4.0 3 10
- 5.204043 2 3 tcp 1000 ------- 1 0.0 4.0 4 11
r 5.254035 2 3 tcp 1000 ------- 1 0.0 4.0 2 9
+ 5.254035 3 4 tcp 1000 ------- 1 0.0 4.0 2 9
- 5.254035 3 4 tcp 1000 ------- 1 0.0 4.0 2 9
r 5.254043 2 3 tcp 1000 ------- 1 0.0 4.0 3 10
+ 5.254043 3 4 tcp 1000 ------- 1 0.0 4.0 3 10
- 5.254043 3 4 tcp 1000 ------- 1 0.0 4.0 3 10
r 5.254051 2 3 tcp 1000 ------- 1 0.0 4.0 4 11
+ 5.254051 3 4 tcp 1000 ------- 1 0.0 4.0 4 11
- 5.254051 3 4 tcp 1000 ------- 1 0.0 4.0 4 11
r 5.552012 5 3 ack 40 ------- 2 5.0 1.0 0 12
+ 5.552012 3 2 ack 40 ------- 2 5.0 1.0 0 12
- 5.552012 3 2 ack 40 ------- 2 5.0 1.0 0 12
r 5.55202 5 3 ack 40 ------- 2 5.0 1.0 1 13
+ 5.55202 3 2 ack 40 ------- 2 5.0 1.0 1 13
- 5.55202 3 2 ack 40 ------- 2 5.0 1.0 1 13
r 5.602012 3 2 ack 40 ------- 2 5.0 1.0 0 12
+ 5.602012 2 1 ack 40 ------- 2 5.0 1.0 0 12
- 5.602012 2 1 ack 40 ------- 2 5.0 1.0 0 12
r 5.60202 3 2 ack 40 ------- 2 5.0 1.0 1 13
+ 5.60202 2 1 ack 40 ------- 2 5.0 1.0 1 13
- 5.60202 2 1 ack 40 ------- 2 5.0 1.0 1 13
r 5.810037 3 4 tcp 1000 ------- 1 0.0 4.0 2 9
+ 5.810037 4 3 ack 40 ------- 1 4.0 0.0 2 15
- 5.810037 4 3 ack 40 ------- 1 4.0 0.0 2 15
r 5.810045 3 4 tcp 1000 ------- 1 0.0 4.0 3 10
+ 5.810045 4 3 ack 40 ------- 1 4.0 0.0 3 16
- 5.810045 4 3 ack 40 ------- 1 4.0 0.0 3 16
r 5.810053 3 4 tcp 1000 ------- 1 0.0 4.0 4 11
+ 5.810053 4 3 ack 40 ------- 1 4.0 0.0 4 17
- 5.810053 4 3 ack 40 ------- 1 4.0 0.0 4 17
r 5.988025 5 3 ack 40 ------- 2 5.0 1.0 2 14
+ 5.988025 3 2 ack 40 ------- 2 5.0 1.0 2 14
- 5.988025 3 2 ack 40 ------- 2 5.0 1.0 2 14
r 6.038025 3 2 ack 40 ------- 2 5.0 1.0 2 14
+ 6.038025 2 1 ack 40 ------- 2 5.0 1.0 2 14
- 6.038025 2 1 ack 40 ------- 2 5.0 1.0 2 14
r 6.366037 4 3 ack 40 ------- 1 4.0 0.0 2 15
+ 6.366037 3 2 ack 40 ------- 1 4.0 0.0 2 15
- 6.366037 3 2 ack 40 ------- 1 4.0 0.0 2 15
r 6.366045 4 3 ack 40 ------- 1 4.0 0.0 3 16
+ 6.366045 3 2 ack 40 ------- 1 4.0 0.0 3 16
- 6.366045 3 2 ack 40 ------- 1 4.0 0.0 3 16
r 6.366053 4 3 ack 40 ------- 1 4.0 0.0 4 17
+ 6.366053 3 2 ack 40 ------- 1 4.0 0.0 4 17
- 6.366053 3 2 ack 40 ------- 1 4.0 0.0 4 17
r 6.416037 3 2 ack 40 ------- 1 4.0 0.0 2 15
+ 6.416037 2 0 ack 40 ------- 1 4.0 0.0 2 15
- 6.416037 2 0 ack 40 ------- 1 4.0 0.0 2 15
r 6.416045 3 2 ack 40 ------- 1 4.0 0.0 3 16
+ 6.416045 2 0 ack 40 ------- 1 4.0 0.0 3 16
- 6.416045 2 0 ack 40 ------- 1 4.0 0.0 3 16
r 6.416053 3 2 ack 40 ------- 1 4.0 0.0 4 17
+ 6.416053 2 0 ack 40 ------- 1 4.0 0.0 4 17
- 6.416053 2 0 ack 40 ------- 1 4.0 0.0 4 17
r 6.436012 2 1 ack 40 ------- 2 5.0 1.0 0 12
r 6.43602 2 1 ack 40 ------- 2 5.0 1.0 1 13
6.43602  1  0  5  0  cwnd_ 2.000 
6.43602  1  0  5  0  ack_ 1
6.43602  1  0  5  0  rtt_ 3.440 
6.43602  1  0  5  0  cwnd_ 2.500 
+ 6.43602 1 2 tcp 1000 ------- 2 1.0 5.0 3 18
- 6.43602 1 2 tcp 1000 ------- 2 1.0 5.0 3 18
6.43602  1  0  5  0  maxseq_ 3
r 6.872025 2 1 ack 40 ------- 2 5.0 1.0 2 14
6.87202  1  0  5  0  ack_ 2
+ 6.872025 1 2 tcp 1000 ------- 2 1.0 5.0 4 19
- 6.872025 1 2 tcp 1000 ------- 2 1.0 5.0 4 19
6.87202  1  0  5  0  maxseq_ 4
r 6.972037 2 0 ack 40 ------- 1 4.0 0.0 2 15
6.97204  0  0  4  0  ack_ 2
6.97204  0  0  4  0  rtt_ 2.330 
+ 6.972037 0 2 tcp 1000 ------- 1 0.0 4.0 5 20
- 6.972037 0 2 tcp 1000 ------- 1 0.0 4.0 5 20
6.97204  0  0  4  0  maxseq_ 5
r 6.972045 2 0 ack 40 ------- 1 4.0 0.0 3 16
6.97205  0  0  4  0  ack_ 3
+ 6.972045 0 2 tcp 1000 ------- 1 0.0 4.0 6 21
- 6.972045 0 2 tcp 1000 ------- 1 0.0 4.0 6 21
6.97205  0  0  4  0  maxseq_ 6
r 6.972053 2 0 ack 40 ------- 1 4.0 0.0 4 17
6.97205  0  0  4  0  ack_ 4
+ 6.972053 0 2 tcp 1000 ------- 1 0.0 4.0 7 22
- 6.972053 0 2 tcp 1000 ------- 1 0.0 4.0 7 22
6.97205  0  0  4  0  maxseq_ 7
r 7.270022 1 2 tcp 1000 ------- 2 1.0 5.0 3 18
+ 7.270022 2 3 tcp 1000 ------- 2 1.0 5.0 3 18
- 7.270022 2 3 tcp 1000 ------- 2 1.0 5.0 3 18
r 7.32003 2 3 tcp 1000 ------- 2 1.0 5.0 3 18
+ 7.32003 3 5 tcp 1000 ------- 2 1.0 5.0 3 18
- 7.32003 3 5 tcp 1000 ------- 2 1.0 5.0 3 18
r 7.528039 0 2 tcp 1000 ------- 1 0.0 4.0 5 20
+ 7.528039 2 3 tcp 1000 ------- 1 0.0 4.0 5 20
- 7.528039 2 3 tcp 1000 ------- 1 0.0 4.0 5 20
r 7.528047 0 2 tcp 1000 ------- 1 0.0 4.0 6 21
+ 7.528047 2 3 tcp 1000 ------- 1 0.0 4.0 6 21
- 7.528047 2 3 tcp 1000 ------- 1 0.0 4.0 6 21
r 7.528055 0 2 tcp 1000 ------- 1 0.0 4.0 7 22
+ 7.528055 2 3 tcp 1000 ------- 1 0.0 4.0 7 22
- 7.528055 2 3 tcp 1000 ------- 1 0.0 4.0 7 22
r 7.578047 2 3 tcp 1000 ------- 1 0.0 4.0 5 20
+ 7.578047 3 4 tcp 1000 ------- 1 0.0 4.0 5 20
- 7.578047 3 4 tcp 1000 ------- 1 0.0 4.0 5 20
r 7.578055 2 3 tcp 1000 ------- 1 0.0 4.0 6 21
+ 7.578055 3 4 tcp 1000 ------- 1 0.0 4.0 6 21
- 7.578055 3 4 tcp 1000 ------- 1 0.0 4.0 6 21
r 7.578063 2 3 tcp 1000 ------- 1 0.0 4.0 7 22
+ 7.578063 3 4 tcp 1000 ------- 1 0.0 4.0 7 22
- 7.578063 3 4 tcp 1000 ------- 1 0.0 4.0 7 22
r 7.706027 1 2 tcp 1000 ------- 2 1.0 5.0 4 19
+ 7.706027 2 3 tcp 1000 ------- 2 1.0 5.0 4 19
- 7.706027 2 3 tcp 1000 ------- 2 1.0 5.0 4 19
r 7.756035 2 3 tcp 1000 ------- 2 1.0 5.0 4 19
+ 7.756035 3 5 tcp 1000 ------- 2 1.0 5.0 4 19
- 7.756035 3 5 tcp 1000 ------- 2 1.0 5.0 4 19
r 8.134049 3 4 tcp 1000 ------- 1 0.0 4.0 5 20
+ 8.134049 4 3 ack 40 ------- 1 4.0 0.0 5 23
- 8.134049 4 3 ack 40 ------- 1 4.0 0.0 5 23
r 8.134057 3 4 tcp 1000 ------- 1 0.0 4.0 6 21
+ 8.134057 4 3 ack 40 ------- 1 4.0 0.0 6 24
- 8.134057 4 3 ack 40 ------- 1 4.0 0.0 6 24
r 8.134065 3 4 tcp 1000 ------- 1 0.0 4.0 7 22
+ 8.134065 4 3 ack 40 ------- 1 4.0 0.0 7 25
- 8.134065 4 3 ack 40 ------- 1 4.0 0.0 7 25
r 8.154032 3 5 tcp 1000 ------- 2 1.0 5.0 3 18
+ 8.154032 5 3 ack 40 ------- 2 5.0 1.0 3 26
- 8.154032 5 3 ack 40 ------- 2 5.0 1.0 3 26
r 8.590037 3 5 tcp 1000 ------- 2 1.0 5.0 4 19
+ 8.590037 5 3 ack 40 ------- 2 5.0 1.0 4 27
- 8.590037 5 3 ack 40 ------- 2 5.0 1.0 4 27
r 8.69005 4 3 ack 40 ------- 1 4.0 0.0 5 23
+ 8.69005 3 2 ack 40 ------- 1 4.0 0.0 5 23
- 8.69005 3 2 ack 40 ------- 1 4.0 0.0 5 23
r 8.690058 4 3 ack 40 ------- 1 4.0 0.0 6 24
+ 8.690058 3 2 ack 40 ------- 1 4.0 0.0 6 24
- 8.690058 3 2 ack 40 ------- 1 4.0 0.0 6 24
r 8.690066 4 3 ack 40 ------- 1 4.0 0.0 7 25
+ 8.690066 3 2 ack 40 ------- 1 4.0 0.0 7 25
- 8.690066 3 2 ack 40 ------- 1 4.0 0.0 7 25
r 8.74005 3 2 ack 40 ------- 1 4.0 0.0 5 23
+ 8.74005 2 0 ack 40 ------- 1 4.0 0.0 5 23
- 8.74005 2 0 ack 40 ------- 1 4.0 0.0 5 23
r 8.740058 3 2 ack 40 ------- 1 4.0 0.0 6 24
+ 8.740058 2 0 ack 40 ------- 1 4.0 0.0 6 24
- 8.740058 2 0 ack 40 ------- 1 4.0 0.0 6 24
r 8.740066 3 2 ack 40 ------- 1 4.0 0.0 7 25
+ 8.740066 2 0 ack 40 ------- 1 4.0 0.0 7 25
- 8.740066 2 0 ack 40 ------- 1 4.0 0.0 7 25
r 8.988033 5 3 ack 40 ------- 2 5.0 1.0 3 26
+ 8.988033 3 2 ack 40 ------- 2 5.0 1.0 3 26
- 8.988033 3 2 ack 40 ------- 2 5.0 1.0 3 26
r 9.038033 3 2 ack 40 ------- 2 5.0 1.0 3 26
+ 9.038033 2 1 ack 40 ------- 2 5.0 1.0 3 26
- 9.038033 2 1 ack 40 ------- 2 5.0 1.0 3 26
r 9.29605 2 0 ack 40 ------- 1 4.0 0.0 5 23
9.29605  0  0  4  0  ack_ 5
9.29605  0  0  4  0  rtt_ 2.320 
9.29605  0  0  4  0  cwnd_ 4.000 
+ 9.29605 0 2 tcp 1000 ------- 1 0.0 4.0 8 28
- 9.29605 0 2 tcp 1000 ------- 1 0.0 4.0 8 28
9.29605  0  0  4  0  maxseq_ 8
+ 9.29605 0 2 tcp 1000 ------- 1 0.0 4.0 9 29
9.29605  0  0  4  0  maxseq_ 9
- 9.296052 0 2 tcp 1000 ------- 1 0.0 4.0 9 29
r 9.296058 2 0 ack 40 ------- 1 4.0 0.0 6 24
9.29606  0  0  4  0  ack_ 6
9.29606  0  0  4  0  cwnd_ 5.000 
+ 9.296058 0 2 tcp 1000 ------- 1 0.0 4.0 10 30
- 9.296058 0 2 tcp 1000 ------- 1 0.0 4.0 10 30
9.29606  0  0  4  0  maxseq_ 10
+ 9.296058 0 2 tcp 1000 ------- 1 0.0 4.0 11 31
9.29606  0  0  4  0  maxseq_ 11
- 9.29606 0 2 tcp 1000 ------- 1 0.0 4.0 11 31
r 9.296066 2 0 ack 40 ------- 1 4.0 0.0 7 25
9.29607  0  0  4  0  ack_ 7
9.29607  0  0  4  0  cwnd_ 6.000 
+ 9.296066 0 2 tcp 1000 ------- 1 0.0 4.0 12 32
- 9.296066 0 2 tcp 1000 ------- 1 0.0 4.0 12 32
9.29607  0  0  4  0  maxseq_ 12
+ 9.296066 0 2 tcp 1000 ------- 1 0.0 4.0 13 33
9.29607  0  0  4  0  maxseq_ 13
- 9.296068 0 2 tcp 1000 ------- 1 0.0 4.0 13 33
r 9.424037 5 3 ack 40 ------- 2 5.0 1.0 4 27
+ 9.424037 3 2 ack 40 ------- 2 5.0 1.0 4 27
- 9.424037 3 2 ack 40 ------- 2 5.0 1.0 4 27
r 9.474037 3 2 ack 40 ------- 2 5.0 1.0 4 27
+ 9.474037 2 1 ack 40 ------- 2 5.0 1.0 4 27
- 9.474037 2 1 ack 40 ------- 2 5.0 1.0 4 27
r 9.852052 0 2 tcp 1000 ------- 1 0.0 4.0 8 28
+ 9.852052 2 3 tcp 1000 ------- 1 0.0 4.0 8 28
- 9.852052 2 3 tcp 1000 ------- 1 0.0 4.0 8 28
r 9.852054 0 2 tcp 1000 ------- 1 0.0 4.0 9 29
+ 9.852054 2 3 tcp 1000 ------- 1 0.0 4.0 9 29
r 9.85206 0 2 tcp 1000 ------- 1 0.0 4.0 10 30
+ 9.85206 2 3 tcp 1000 ------- 1 0.0 4.0 10 30
- 9.85206 2 3 tcp 1000 ------- 1 0.0 4.0 9 29
r 9.852062 0 2 tcp 1000 ------- 1 0.0 4.0 11 31
+ 9.852062 2 3 tcp 1000 ------- 1 0.0 4.0 11 31
- 9.852068 2 3 tcp 1000 ------- 1 0.0 4.0 10 30
r 9.852068 0 2 tcp 1000 ------- 1 0.0 4.0 12 32
+ 9.852068 2 3 tcp 1000 ------- 1 0.0 4.0 12 32
r 9.85207 0 2 tcp 1000 ------- 1 0.0 4.0 13 33
+ 9.85207 2 3 tcp 1000 ------- 1 0.0 4.0 13 33
- 9.852076 2 3 tcp 1000 ------- 1 0.0 4.0 11 31
- 9.852084 2 3 tcp 1000 ------- 1 0.0 4.0 12 32
- 9.852092 2 3 tcp 1000 ------- 1 0.0 4.0 13 33
r 9.872033 2 1 ack 40 ------- 2 5.0 1.0 3 26
9.87203  1  0  5  0  ack_ 3
+ 9.872033 1 2 tcp 1000 ------- 2 1.0 5.0 5 34
- 9.872033 1 2 tcp 1000 ------- 2 1.0 5.0 5 34
9.87203  1  0  5  0  maxseq_ 5
r 9.90206 2 3 tcp 1000 ------- 1 0.0 4.0 8 28
+ 9.90206 3 4 tcp 1000 ------- 1 0.0 4.0 8 28
- 9.90206 3 4 tcp 1000 ------- 1 0.0 4.0 8 28
r 9.902068 2 3 tcp 1000 ------- 1 0.0 4.0 9 29
+ 9.902068 3 4 tcp 1000 ------- 1 0.0 4.0 9 29
- 9.902068 3 4 tcp 1000 ------- 1 0.0 4.0 9 29
r 9.902076 2 3 tcp 1000 ------- 1 0.0 4.0 10 30
+ 9.902076 3 4 tcp 1000 ------- 1 0.0 4.0 10 30
- 9.902076 3 4 tcp 1000 ------- 1 0.0 4.0 10 30
r 9.902084 2 3 tcp 1000 ------- 1 0.0 4.0 11 31
+ 9.902084 3 4 tcp 1000 ------- 1 0.0 4.0 11 31
- 9.902084 3 4 tcp 1000 ------- 1 0.0 4.0 11 31
r 9.902092 2 3 tcp 1000 ------- 1 0.0 4.0 12 32
+ 9.902092 3 4 tcp 1000 ------- 1 0.0 4.0 12 32
- 9.902092 3 4 tcp 1000 ------- 1 0.0 4.0 12 32
r 9.9021 2 3 tcp 1000 ------- 1 0.0 4.0 13 33
+ 9.9021 3 4 tcp 1000 ------- 1 0.0 4.0 13 33
- 9.9021 3 4 tcp 1000 ------- 1 0.0 4.0 13 33
r 10.308037 2 1 ack 40 ------- 2 5.0 1.0 4 27
10.30804 1  0  5  0  ack_ 4
+ 10.308037 1 2 tcp 1000 ------- 2 1.0 5.0 6 35
- 10.308037 1 2 tcp 1000 ------- 2 1.0 5.0 6 35
10.30804 1  0  5  0  maxseq_ 6
r 10.458062 3 4 tcp 1000 ------- 1 0.0 4.0 8 28
+ 10.458062 4 3 ack 40 ------- 1 4.0 0.0 8 36
- 10.458062 4 3 ack 40 ------- 1 4.0 0.0 8 36
r 10.45807 3 4 tcp 1000 ------- 1 0.0 4.0 9 29
+ 10.45807 4 3 ack 40 ------- 1 4.0 0.0 9 37
- 10.45807 4 3 ack 40 ------- 1 4.0 0.0 9 37
r 10.458078 3 4 tcp 1000 ------- 1 0.0 4.0 10 30
+ 10.458078 4 3 ack 40 ------- 1 4.0 0.0 10 38
- 10.458078 4 3 ack 40 ------- 1 4.0 0.0 10 38
r 10.458086 3 4 tcp 1000 ------- 1 0.0 4.0 11 31
+ 10.458086 4 3 ack 40 ------- 1 4.0 0.0 11 39
- 10.458086 4 3 ack 40 ------- 1 4.0 0.0 11 39
r 10.458094 3 4 tcp 1000 ------- 1 0.0 4.0 12 32
+ 10.458094 4 3 ack 40 ------- 1 4.0 0.0 12 40
- 10.458094 4 3 ack 40 ------- 1 4.0 0.0 12 40
r 10.458102 3 4 tcp 1000 ------- 1 0.0 4.0 13 33
+ 10.458102 4 3 ack 40 ------- 1 4.0 0.0 13 41
- 10.458102 4 3 ack 40 ------- 1 4.0 0.0 13 41
r 10.706035 1 2 tcp 1000 ------- 2 1.0 5.0 5 34
+ 10.706035 2 3 tcp 1000 ------- 2 1.0 5.0 5 34
- 10.706035 2 3 tcp 1000 ------- 2 1.0 5.0 5 34
r 10.756043 2 3 tcp 1000 ------- 2 1.0 5.0 5 34
+ 10.756043 3 5 tcp 1000 ------- 2 1.0 5.0 5 34
- 10.756043 3 5 tcp 1000 ------- 2 1.0 5.0 5 34
r 11.014062 4 3 ack 40 ------- 1 4.0 0.0 8 36
+ 11.014062 3 2 ack 40 ------- 1 4.0 0.0 8 36
- 11.014062 3 2 ack 40 ------- 1 4.0 0.0 8 36
r 11.01407 4 3 ack 40 ------- 1 4.0 0.0 9 37
+ 11.01407 3 2 ack 40 ------- 1 4.0 0.0 9 37
- 11.01407 3 2 ack 40 ------- 1 4.0 0.0 9 37
r 11.014078 4 3 ack 40 ------- 1 4.0 0.0 10 38
+ 11.014078 3 2 ack 40 ------- 1 4.0 0.0 10 38
- 11.014078 3 2 ack 40 ------- 1 4.0 0.0 10 38
r 11.014086 4 3 ack 40 ------- 1 4.0 0.0 11 39
+ 11.014086 3 2 ack 40 ------- 1 4.0 0.0 11 39
- 11.014086 3 2 ack 40 ------- 1 4.0 0.0 11 39
r 11.014094 4 3 ack 40 ------- 1 4.0 0.0 12 40
+ 11.014094 3 2 ack 40 ------- 1 4.0 0.0 12 40
- 11.014094 3 2 ack 40 ------- 1 4.0 0.0 12 40
r 11.014102 4 3 ack 40 ------- 1 4.0 0.0 13 41
+ 11.014102 3 2 ack 40 ------- 1 4.0 0.0 13 41
- 11.014102 3 2 ack 40 ------- 1 4.0 0.0 13 41
r 11.064062 3 2 ack 40 ------- 1 4.0 0.0 8 36
+ 11.064062 2 0 ack 40 ------- 1 4.0 0.0 8 36
- 11.064062 2 0 ack 40 ------- 1 4.0 0.0 8 36
r 11.06407 3 2 ack 40 ------- 1 4.0 0.0 9 37
+ 11.06407 2 0 ack 40 ------- 1 4.0 0.0 9 37
- 11.06407 2 0 ack 40 ------- 1 4.0 0.0 9 37
r 11.064078 3 2 ack 40 ------- 1 4.0 0.0 10 38
+ 11.064078 2 0 ack 40 ------- 1 4.0 0.0 10 38
- 11.064078 2 0 ack 40 ------- 1 4.0 0.0 10 38
r 11.064086 3 2 ack 40 ------- 1 4.0 0.0 11 39
+ 11.064086 2 0 ack 40 ------- 1 4.0 0.0 11 39
- 11.064086 2 0 ack 40 ------- 1 4.0 0.0 11 39
r 11.064094 3 2 ack 40 ------- 1 4.0 0.0 12 40
+ 11.064094 2 0 ack 40 ------- 1 4.0 0.0 12 40
- 11.064094 2 0 ack 40 ------- 1 4.0 0.0 12 40
r 11.064102 3 2 ack 40 ------- 1 4.0 0.0 13 41
+ 11.064102 2 0 ack 40 ------- 1 4.0 0.0 13 41
- 11.064102 2 0 ack 40 ------- 1 4.0 0.0 13 41
r 11.142039 1 2 tcp 1000 ------- 2 1.0 5.0 6 35
+ 11.142039 2 3 tcp 1000 ------- 2 1.0 5.0 6 35
- 11.142039 2 3 tcp 1000 ------- 2 1.0 5.0 6 35
r 11.192047 2 3 tcp 1000 ------- 2 1.0 5.0 6 35
+ 11.192047 3 5 tcp 1000 ------- 2 1.0 5.0 6 35
- 11.192047 3 5 tcp 1000 ------- 2 1.0 5.0 6 35
r 11.590045 3 5 tcp 1000 ------- 2 1.0 5.0 5 34
+ 11.590045 5 3 ack 40 ------- 2 5.0 1.0 5 42
- 11.590045 5 3 ack 40 ------- 2 5.0 1.0 5 42
r 11.620062 2 0 ack 40 ------- 1 4.0 0.0 8 36
11.62006 0  0  4  0  ack_ 8
11.62006 0  0  4  0  rtt_ 2.330 
+ 11.620062 0 2 tcp 1000 ------- 1 0.0 4.0 14 43
- 11.620062 0 2 tcp 1000 ------- 1 0.0 4.0 14 43
11.62006 0  0  4  0  maxseq_ 14
r 11.62007 2 0 ack 40 ------- 1 4.0 0.0 9 37
11.62007 0  0  4  0  ack_ 9
+ 11.62007 0 2 tcp 1000 ------- 1 0.0 4.0 15 44
- 11.62007 0 2 tcp 1000 ------- 1 0.0 4.0 15 44
11.62007 0  0  4  0  maxseq_ 15
r 11.620078 2 0 ack 40 ------- 1 4.0 0.0 10 38
11.62008 0  0  4  0  ack_ 10
+ 11.620078 0 2 tcp 1000 ------- 1 0.0 4.0 16 45
- 11.620078 0 2 tcp 1000 ------- 1 0.0 4.0 16 45
11.62008 0  0  4  0  maxseq_ 16
r 11.620086 2 0 ack 40 ------- 1 4.0 0.0 11 39
11.62009 0  0  4  0  ack_ 11
+ 11.620086 0 2 tcp 1000 ------- 1 0.0 4.0 17 46
- 11.620086 0 2 tcp 1000 ------- 1 0.0 4.0 17 46
11.62009 0  0  4  0  maxseq_ 17
r 11.620094 2 0 ack 40 ------- 1 4.0 0.0 12 40
11.62009 0  0  4  0  ack_ 12
+ 11.620094 0 2 tcp 1000 ------- 1 0.0 4.0 18 47
- 11.620094 0 2 tcp 1000 ------- 1 0.0 4.0 18 47
11.62009 0  0  4  0  maxseq_ 18
r 11.620102 2 0 ack 40 ------- 1 4.0 0.0 13 41
11.62010 0  0  4  0  ack_ 13
+ 11.620102 0 2 tcp 1000 ------- 1 0.0 4.0 19 48
- 11.620102 0 2 tcp 1000 ------- 1 0.0 4.0 19 48
11.62010 0  0  4  0  maxseq_ 19
r 12.026049 3 5 tcp 1000 ------- 2 1.0 5.0 6 35
+ 12.026049 5 3 ack 40 ------- 2 5.0 1.0 6 49
- 12.026049 5 3 ack 40 ------- 2 5.0 1.0 6 49
r 12.176064 0 2 tcp 1000 ------- 1 0.0 4.0 14 43
+ 12.176064 2 3 tcp 1000 ------- 1 0.0 4.0 14 43
- 12.176064 2 3 tcp 1000 ------- 1 0.0 4.0 14 43
r 12.176072 0 2 tcp 1000 ------- 1 0.0 4.0 15 44
+ 12.176072 2 3 tcp 1000 ------- 1 0.0 4.0 15 44
- 12.176072 2 3 tcp 1000 ------- 1 0.0 4.0 15 44
r 12.17608 0 2 tcp 1000 ------- 1 0.0 4.0 16 45
+ 12.17608 2 3 tcp 1000 ------- 1 0.0 4.0 16 45
- 12.17608 2 3 tcp 1000 ------- 1 0.0 4.0 16 45
r 12.176088 0 2 tcp 1000 ------- 1 0.0 4.0 17 46
+ 12.176088 2 3 tcp 1000 ------- 1 0.0 4.0 17 46
- 12.176088 2 3 tcp 1000 ------- 1 0.0 4.0 17 46
r 12.176096 0 2 tcp 1000 ------- 1 0.0 4.0 18 47
+ 12.176096 2 3 tcp 1000 ------- 1 0.0 4.0 18 47
- 12.176096 2 3 tcp 1000 ------- 1 0.0 4.0 18 47
r 12.176104 0 2 tcp 1000 ------- 1 0.0 4.0 19 48
+ 12.176104 2 3 tcp 1000 ------- 1 0.0 4.0 19 48
- 12.176104 2 3 tcp 1000 ------- 1 0.0 4.0 19 48
r 12.226072 2 3 tcp 1000 ------- 1 0.0 4.0 14 43
+ 12.226072 3 4 tcp 1000 ------- 1 0.0 4.0 14 43
- 12.226072 3 4 tcp 1000 ------- 1 0.0 4.0 14 43
r 12.22608 2 3 tcp 1000 ------- 1 0.0 4.0 15 44
+ 12.22608 3 4 tcp 1000 ------- 1 0.0 4.0 15 44
- 12.22608 3 4 tcp 1000 ------- 1 0.0 4.0 15 44
r 12.226088 2 3 tcp 1000 ------- 1 0.0 4.0 16 45
+ 12.226088 3 4 tcp 1000 ------- 1 0.0 4.0 16 45
- 12.226088 3 4 tcp 1000 ------- 1 0.0 4.0 16 45
r 12.226096 2 3 tcp 1000 ------- 1 0.0 4.0 17 46
+ 12.226096 3 4 tcp 1000 ------- 1 0.0 4.0 17 46
- 12.226096 3 4 tcp 1000 ------- 1 0.0 4.0 17 46
r 12.226104 2 3 tcp 1000 ------- 1 0.0 4.0 18 47
+ 12.226104 3 4 tcp 1000 ------- 1 0.0 4.0 18 47
- 12.226104 3 4 tcp 1000 ------- 1 0.0 4.0 18 47
r 12.226112 2 3 tcp 1000 ------- 1 0.0 4.0 19 48
+ 12.226112 3 4 tcp 1000 ------- 1 0.0 4.0 19 48
- 12.226112 3 4 tcp 1000 ------- 1 0.0 4.0 19 48
r 12.424045 5 3 ack 40 ------- 2 5.0 1.0 5 42
+ 12.424045 3 2 ack 40 ------- 2 5.0 1.0 5 42
- 12.424045 3 2 ack 40 ------- 2 5.0 1.0 5 42
r 12.474045 3 2 ack 40 ------- 2 5.0 1.0 5 42
+ 12.474045 2 1 ack 40 ------- 2 5.0 1.0 5 42
- 12.474045 2 1 ack 40 ------- 2 5.0 1.0 5 42
r 12.782074 3 4 tcp 1000 ------- 1 0.0 4.0 14 43
+ 12.782074 4 3 ack 40 ------- 1 4.0 0.0 14 50
- 12.782074 4 3 ack 40 ------- 1 4.0 0.0 14 50
r 12.782082 3 4 tcp 1000 ------- 1 0.0 4.0 15 44
+ 12.782082 4 3 ack 40 ------- 1 4.0 0.0 15 51
- 12.782082 4 3 ack 40 ------- 1 4.0 0.0 15 51
r 12.78209 3 4 tcp 1000 ------- 1 0.0 4.0 16 45
+ 12.78209 4 3 ack 40 ------- 1 4.0 0.0 16 52
- 12.78209 4 3 ack 40 ------- 1 4.0 0.0 16 52
r 12.782098 3 4 tcp 1000 ------- 1 0.0 4.0 17 46
+ 12.782098 4 3 ack 40 ------- 1 4.0 0.0 17 53
- 12.782098 4 3 ack 40 ------- 1 4.0 0.0 17 53
r 12.782106 3 4 tcp 1000 ------- 1 0.0 4.0 18 47
+ 12.782106 4 3 ack 40 ------- 1 4.0 0.0 18 54
- 12.782106 4 3 ack 40 ------- 1 4.0 0.0 18 54
r 12.782114 3 4 tcp 1000 ------- 1 0.0 4.0 19 48
+ 12.782114 4 3 ack 40 ------- 1 4.0 0.0 19 55
- 12.782114 4 3 ack 40 ------- 1 4.0 0.0 19 55
r 12.86005 5 3 ack 40 ------- 2 5.0 1.0 6 49
+ 12.86005 3 2 ack 40 ------- 2 5.0 1.0 6 49
- 12.86005 3 2 ack 40 ------- 2 5.0 1.0 6 49
r 12.91005 3 2 ack 40 ------- 2 5.0 1.0 6 49
+ 12.91005 2 1 ack 40 ------- 2 5.0 1.0 6 49
- 12.91005 2 1 ack 40 ------- 2 5.0 1.0 6 49
r 13.308045 2 1 ack 40 ------- 2 5.0 1.0 5 42
13.30805 1  0  5  0  ack_ 5
13.30805 1  0  5  0  rtt_ 3.430 
+ 13.308045 1 2 tcp 1000 ------- 2 1.0 5.0 7 56
- 13.308045 1 2 tcp 1000 ------- 2 1.0 5.0 7 56
13.30805 1  0  5  0  maxseq_ 7
r 13.338074 4 3 ack 40 ------- 1 4.0 0.0 14 50
+ 13.338074 3 2 ack 40 ------- 1 4.0 0.0 14 50
- 13.338074 3 2 ack 40 ------- 1 4.0 0.0 14 50
r 13.338082 4 3 ack 40 ------- 1 4.0 0.0 15 51
+ 13.338082 3 2 ack 40 ------- 1 4.0 0.0 15 51
- 13.338082 3 2 ack 40 ------- 1 4.0 0.0 15 51
r 13.33809 4 3 ack 40 ------- 1 4.0 0.0 16 52
+ 13.33809 3 2 ack 40 ------- 1 4.0 0.0 16 52
- 13.33809 3 2 ack 40 ------- 1 4.0 0.0 16 52
r 13.338098 4 3 ack 40 ------- 1 4.0 0.0 17 53
+ 13.338098 3 2 ack 40 ------- 1 4.0 0.0 17 53
- 13.338098 3 2 ack 40 ------- 1 4.0 0.0 17 53
r 13.338106 4 3 ack 40 ------- 1 4.0 0.0 18 54
+ 13.338106 3 2 ack 40 ------- 1 4.0 0.0 18 54
- 13.338106 3 2 ack 40 ------- 1 4.0 0.0 18 54
r 13.338114 4 3 ack 40 ------- 1 4.0 0.0 19 55
+ 13.338114 3 2 ack 40 ------- 1 4.0 0.0 19 55
- 13.338114 3 2 ack 40 ------- 1 4.0 0.0 19 55
r 13.388075 3 2 ack 40 ------- 1 4.0 0.0 14 50
+ 13.388075 2 0 ack 40 ------- 1 4.0 0.0 14 50
- 13.388075 2 0 ack 40 ------- 1 4.0 0.0 14 50
r 13.388083 3 2 ack 40 ------- 1 4.0 0.0 15 51
+ 13.388083 2 0 ack 40 ------- 1 4.0 0.0 15 51
- 13.388083 2 0 ack 40 ------- 1 4.0 0.0 15 51
r 13.388091 3 2 ack 40 ------- 1 4.0 0.0 16 52
+ 13.388091 2 0 ack 40 ------- 1 4.0 0.0 16 52
- 13.388091 2 0 ack 40 ------- 1 4.0 0.0 16 52
r 13.388099 3 2 ack 40 ------- 1 4.0 0.0 17 53
+ 13.388099 2 0 ack 40 ------- 1 4.0 0.0 17 53
- 13.388099 2 0 ack 40 ------- 1 4.0 0.0 17 53
r 13.388107 3 2 ack 40 ------- 1 4.0 0.0 18 54
+ 13.388107 2 0 ack 40 ------- 1 4.0 0.0 18 54
- 13.388107 2 0 ack 40 ------- 1 4.0 0.0 18 54
r 13.388115 3 2 ack 40 ------- 1 4.0 0.0 19 55
+ 13.388115 2 0 ack 40 ------- 1 4.0 0.0 19 55
- 13.388115 2 0 ack 40 ------- 1 4.0 0.0 19 55
r 13.74405 2 1 ack 40 ------- 2 5.0 1.0 6 49
13.74405 1  0  5  0  ack_ 6
+ 13.74405 1 2 tcp 1000 ------- 2 1.0 5.0 8 57
- 13.74405 1 2 tcp 1000 ------- 2 1.0 5.0 8 57
13.74405 1  0  5  0  maxseq_ 8
r 13.944075 2 0 ack 40 ------- 1 4.0 0.0 14 50
13.94407 0  0  4  0  ack_ 14
13.94407 0  0  4  0  rtt_ 2.320 
13.94407 0  0  4  0  cwnd_ 7.000 
+ 13.944075 0 2 tcp 1000 ------- 1 0.0 4.0 20 58
- 13.944075 0 2 tcp 1000 ------- 1 0.0 4.0 20 58
13.94407 0  0  4  0  maxseq_ 20
+ 13.944075 0 2 tcp 1000 ------- 1 0.0 4.0 21 59
13.94407 0  0  4  0  maxseq_ 21
- 13.944077 0 2 tcp 1000 ------- 1 0.0 4.0 21 59
r 13.944083 2 0 ack 40 ------- 1 4.0 0.0 15 51
13.94408 0  0  4  0  ack_ 15
13.94408 0  0  4  0  cwnd_ 8.000 
+ 13.944083 0 2 tcp 1000 ------- 1 0.0 4.0 22 60
- 13.944083 0 2 tcp 1000 ------- 1 0.0 4.0 22 60
13.94408 0  0  4  0  maxseq_ 22
+ 13.944083 0 2 tcp 1000 ------- 1 0.0 4.0 23 61
13.94408 0  0  4  0  maxseq_ 23
- 13.944085 0 2 tcp 1000 ------- 1 0.0 4.0 23 61
r 13.944091 2 0 ack 40 ------- 1 4.0 0.0 16 52
13.94409 0  0  4  0  ack_ 16
13.94409 0  0  4  0  cwnd_ 9.000 
+ 13.944091 0 2 tcp 1000 ------- 1 0.0 4.0 24 62
- 13.944091 0 2 tcp 1000 ------- 1 0.0 4.0 24 62
13.94409 0  0  4  0  maxseq_ 24
+ 13.944091 0 2 tcp 1000 ------- 1 0.0 4.0 25 63
13.94409 0  0  4  0  maxseq_ 25
- 13.944093 0 2 tcp 1000 ------- 1 0.0 4.0 25 63
r 13.944099 2 0 ack 40 ------- 1 4.0 0.0 17 53
13.94410 0  0  4  0  ack_ 17
13.94410 0  0  4  0  cwnd_ 10.000
+ 13.944099 0 2 tcp 1000 ------- 1 0.0 4.0 26 64
- 13.944099 0 2 tcp 1000 ------- 1 0.0 4.0 26 64
13.94410 0  0  4  0  maxseq_ 26
+ 13.944099 0 2 tcp 1000 ------- 1 0.0 4.0 27 65
13.94410 0  0  4  0  maxseq_ 27
- 13.944101 0 2 tcp 1000 ------- 1 0.0 4.0 27 65
r 13.944107 2 0 ack 40 ------- 1 4.0 0.0 18 54
13.94411 0  0  4  0  ack_ 18
13.94411 0  0  4  0  cwnd_ 11.000
+ 13.944107 0 2 tcp 1000 ------- 1 0.0 4.0 28 66
- 13.944107 0 2 tcp 1000 ------- 1 0.0 4.0 28 66
13.94411 0  0  4  0  maxseq_ 28
+ 13.944107 0 2 tcp 1000 ------- 1 0.0 4.0 29 67
13.94411 0  0  4  0  maxseq_ 29
- 13.944109 0 2 tcp 1000 ------- 1 0.0 4.0 29 67
r 13.944115 2 0 ack 40 ------- 1 4.0 0.0 19 55
13.94411 0  0  4  0  ack_ 19
13.94411 0  0  4  0  cwnd_ 12.000
+ 13.944115 0 2 tcp 1000 ------- 1 0.0 4.0 30 68
- 13.944115 0 2 tcp 1000 ------- 1 0.0 4.0 30 68
13.94411 0  0  4  0  maxseq_ 30
+ 13.944115 0 2 tcp 1000 ------- 1 0.0 4.0 31 69
13.94411 0  0  4  0  maxseq_ 31
- 13.944117 0 2 tcp 1000 ------- 1 0.0 4.0 31 69
r 14.142047 1 2 tcp 1000 ------- 2 1.0 5.0 7 56
+ 14.142047 2 3 tcp 1000 ------- 2 1.0 5.0 7 56
- 14.142047 2 3 tcp 1000 ------- 2 1.0 5.0 7 56
r 14.192055 2 3 tcp 1000 ------- 2 1.0 5.0 7 56
+ 14.192055 3 5 tcp 1000 ------- 2 1.0 5.0 7 56
- 14.192055 3 5 tcp 1000 ------- 2 1.0 5.0 7 56
r 14.500077 0 2 tcp 1000 ------- 1 0.0 4.0 20 58
+ 14.500077 2 3 tcp 1000 ------- 1 0.0 4.0 20 58
- 14.500077 2 3 tcp 1000 ------- 1 0.0 4.0 20 58
r 14.500079 0 2 tcp 1000 ------- 1 0.0 4.0 21 59
+ 14.500079 2 3 tcp 1000 ------- 1 0.0 4.0 21 59
r 14.500085 0 2 tcp 1000 ------- 1 0.0 4.0 22 60
+ 14.500085 2 3 tcp 1000 ------- 1 0.0 4.0 22 60
- 14.500085 2 3 tcp 1000 ------- 1 0.0 4.0 21 59
r 14.500087 0 2 tcp 1000 ------- 1 0.0 4.0 23 61
+ 14.500087 2 3 tcp 1000 ------- 1 0.0 4.0 23 61
r 14.500093 0 2 tcp 1000 ------- 1 0.0 4.0 24 62
+ 14.500093 2 3 tcp 1000 ------- 1 0.0 4.0 24 62
- 14.500093 2 3 tcp 1000 ------- 1 0.0 4.0 22 60
r 14.500095 0 2 tcp 1000 ------- 1 0.0 4.0 25 63
+ 14.500095 2 3 tcp 1000 ------- 1 0.0 4.0 25 63
r 14.500101 0 2 tcp 1000 ------- 1 0.0 4.0 26 64
+ 14.500101 2 3 tcp 1000 ------- 1 0.0 4.0 26 64
- 14.500101 2 3 tcp 1000 ------- 1 0.0 4.0 23 61
r 14.500103 0 2 tcp 1000 ------- 1 0.0 4.0 27 65
+ 14.500103 2 3 tcp 1000 ------- 1 0.0 4.0 27 65
r 14.500109 0 2 tcp 1000 ------- 1 0.0 4.0 28 66
+ 14.500109 2 3 tcp 1000 ------- 1 0.0 4.0 28 66
- 14.500109 2 3 tcp 1000 ------- 1 0.0 4.0 24 62
r 14.500111 0 2 tcp 1000 ------- 1 0.0 4.0 29 67
+ 14.500111 2 3 tcp 1000 ------- 1 0.0 4.0 29 67
r 14.500117 0 2 tcp 1000 ------- 1 0.0 4.0 30 68
+ 14.500117 2 3 tcp 1000 ------- 1 0.0 4.0 30 68
- 14.500117 2 3 tcp 1000 ------- 1 0.0 4.0 25 63
r 14.500119 0 2 tcp 1000 ------- 1 0.0 4.0 31 69
+ 14.500119 2 3 tcp 1000 ------- 1 0.0 4.0 31 69
- 14.500125 2 3 tcp 1000 ------- 1 0.0 4.0 26 64
- 14.500133 2 3 tcp 1000 ------- 1 0.0 4.0 27 65
- 14.500141 2 3 tcp 1000 ------- 1 0.0 4.0 28 66
- 14.500149 2 3 tcp 1000 ------- 1 0.0 4.0 29 67
- 14.500157 2 3 tcp 1000 ------- 1 0.0 4.0 30 68