0.00000  0  0  4  0  cwnd_ 1.000 
0.00000  0  0  4  0  ssthresh_ 20
0.00000  0  0  4  0  ack_ -1
0.00000  0  0  4  0  maxseq_ -1
0.00000  0  0  4  0  rtt_ 0.000 
0.00000  1  0  5  0  cwnd_ 1.000 
0.00000  1  0  5  0  ssthresh_ 20
0.00000  1  0  5  0  ack_ -1
0.00000  1  0  5  0  maxseq_ -1
0.00000  1  0  5  0  rtt_ 0.000 
0.00000  0  0  4  0  ssthresh_ 1000
0.00000  1  0  5  0  ssthresh_ 1000
+ 0 1 2 tcp 1000 ------- 2 1.0 5.0 0 0
- 0 1 2 tcp 1000 ------- 2 1.0 5.0 0 0
0.00000  1  0  5  0  maxseq_ 0
+ 0 0 2 tcp 1000 ------- 1 0.0 4.0 0 1
- 0 0 2 tcp 1000 ------- 1 0.0 4.0 0 1
0.00000  0  0  4  0  maxseq_ 0
r 0.578002 0 2 tcp 1000 ------- 1 0.0 4.0 0 1
+ 0.578002 2 3 tcp 1000 ------- 1 0.0 4.0 0 1
- 0.578002 2 3 tcp 1000 ------- 1 0.0 4.0 0 1
r 0.62801 2 3 tcp 1000 ------- 1 0.0 4.0 0 1
+ 0.62801 3 4 tcp 1000 ------- 1 0.0 4.0 0 1
- 0.62801 3 4 tcp 1000 ------- 1 0.0 4.0 0 1
r 0.856002 1 2 tcp 1000 ------- 2 1.0 5.0 0 0
+ 0.856002 2 3 tcp 1000 ------- 2 1.0 5.0 0 0
- 0.856002 2 3 tcp 1000 ------- 2 1.0 5.0 0 0
r 0.90601 2 3 tcp 1000 ------- 2 1.0 5.0 0 0
+ 0.90601 3 5 tcp 1000 ------- 2 1.0 5.0 0 0
- 0.90601 3 5 tcp 1000 ------- 2 1.0 5.0 0 0
r 1.206012 3 4 tcp 1000 ------- 1 0.0 4.0 0 1
+ 1.206012 4 3 ack 40 ------- 1 4.0 0.0 0 2
- 1.206012 4 3 ack 40 ------- 1 4.0 0.0 0 2
r 1.762012 3 5 tcp 1000 ------- 2 1.0 5.0 0 0
+ 1.762012 5 3 ack 40 ------- 2 5.0 1.0 0 3
- 1.762012 5 3 ack 40 ------- 2 5.0 1.0 0 3
r 1.784012 4 3 ack 40 ------- 1 4.0 0.0 0 2
+ 1.784012 3 2 ack 40 ------- 1 4.0 0.0 0 2
- 1.784012 3 2 ack 40 ------- 1 4.0 0.0 0 2
r 1.834012 3 2 ack 40 ------- 1 4.0 0.0 0 2
+ 1.834012 2 0 ack 40 ------- 1 4.0 0.0 0 2
- 1.834012 2 0 ack 40 ------- 1 4.0 0.0 0 2
r 2.412012 2 0 ack 40 ------- 1 4.0 0.0 0 2
2.41201  0  0  4  0  ack_ 0
2.41201  0  0  4  0  rtt_ 2.410 
+ 2.412012 0 2 tcp 1000 ------- 1 0.0 4.0 1 4
- 2.412012 0 2 tcp 1000 ------- 1 0.0 4.0 1 4
2.41201  0  0  4  0  maxseq_ 1
r 2.618012 5 3 ack 40 ------- 2 5.0 1.0 0 3
+ 2.618012 3 2 ack 40 ------- 2 5.0 1.0 0 3
- 2.618012 3 2 ack 40 ------- 2 5.0 1.0 0 3
r 2.668012 3 2 ack 40 ------- 2 5.0 1.0 0 3
+ 2.668012 2 1 ack 40 ------- 2 5.0 1.0 0 3
- 2.668012 2 1 ack 40 ------- 2 5.0 1.0 0 3
r 2.990014 0 2 tcp 1000 ------- 1 0.0 4.0 1 4
+ 2.990014 2 3 tcp 1000 ------- 1 0.0 4.0 1 4
- 2.990014 2 3 tcp 1000 ------- 1 0.0 4.0 1 4
3.00000  1  0  5  0  ssthresh_ 0
3.00000  1  0  5  0  ssthresh_ 2
3.00000  1  0  5  0  cwnd_ 2.000 
+ 3 1 2 tcp 1000 ------- 2 1.0 5.0 0 5
- 3 1 2 tcp 1000 ------- 2 1.0 5.0 0 5
+ 3 1 2 tcp 1000 ------- 2 1.0 5.0 1 6
3.00000  1  0  5  0  maxseq_ 1
- 3.000002 1 2 tcp 1000 ------- 2 1.0 5.0 1 6
r 3.040022 2 3 tcp 1000 ------- 1 0.0 4.0 1 4
+ 3.040022 3 4 tcp 1000 ------- 1 0.0 4.0 1 4
- 3.040022 3 4 tcp 1000 ------- 1 0.0 4.0 1 4
r 3.524012 2 1 ack 40 ------- 2 5.0 1.0 0 3
3.52401  1  0  5  0  ack_ 0
3.52401  1  0  5  0  cwnd_ 2.500 
+ 3.524012 1 2 tcp 1000 ------- 2 1.0 5.0 2 7
- 3.524012 1 2 tcp 1000 ------- 2 1.0 5.0 2 7
3.52401  1  0  5  0  maxseq_ 2
r 3.618024 3 4 tcp 1000 ------- 1 0.0 4.0 1 4
+ 3.618024 4 3 ack 40 ------- 1 4.0 0.0 1 8
- 3.618024 4 3 ack 40 ------- 1 4.0 0.0 1 8
r 3.856002 1 2 tcp 1000 ------- 2 1.0 5.0 0 5
+ 3.856002 2 3 tcp 1000 ------- 2 1.0 5.0 0 5
- 3.856002 2 3 tcp 1000 ------- 2 1.0 5.0 0 5
r 3.856004 1 2 tcp 1000 ------- 2 1.0 5.0 1 6
+ 3.856004 2 3 tcp 1000 ------- 2 1.0 5.0 1 6
- 3.85601 2 3 tcp 1000 ------- 2 1.0 5.0 1 6
r 3.90601 2 3 tcp 1000 ------- 2 1.0 5.0 0 5
+ 3.90601 3 5 tcp 1000 ------- 2 1.0 5.0 0 5
- 3.90601 3 5 tcp 1000 ------- 2 1.0 5.0 0 5
r 3.906018 2 3 tcp 1000 ------- 2 1.0 5.0 1 6
+ 3.906018 3 5 tcp 1000 ------- 2 1.0 5.0 1 6
- 3.906018 3 5 tcp 1000 ------- 2 1.0 5.0 1 6
r 4.196025 4 3 ack 40 ------- 1 4.0 0.0 1 8
+ 4.196025 3 2 ack 40 ------- 1 4.0 0.0 1 8
- 4.196025 3 2 ack 40 ------- 1 4.0 0.0 1 8
r 4.246025 3 2 ack 40 ------- 1 4.0 0.0 1 8
+ 4.246025 2 0 ack 40 ------- 1 4.0 0.0 1 8
- 4.246025 2 0 ack 40 ------- 1 4.0 0.0 1 8
r 4.380014 1 2 tcp 1000 ------- 2 1.0 5.0 2 7
+ 4.380014 2 3 tcp 1000 ------- 2 1.0 5.0 2 7
- 4.380014 2 3 tcp 1000 ------- 2 1.0 5.0 2 7
r 4.430022 2 3 tcp 1000 ------- 2 1.0 5.0 2 7
+ 4.430022 3 5 tcp 1000 ------- 2 1.0 5.0 2 7
- 4.430022 3 5 tcp 1000 ------- 2 1.0 5.0 2 7
r 4.762012 3 5 tcp 1000 ------- 2 1.0 5.0 0 5
+ 4.762012 5 3 ack 40 ------- 2 5.0 1.0 0 9
- 4.762012 5 3 ack 40 ------- 2 5.0 1.0 0 9
r 4.76202 3 5 tcp 1000 ------- 2 1.0 5.0 1 6
+ 4.76202 5 3 ack 40 ------- 2 5.0 1.0 1 10
- 4.76202 5 3 ack 40 ------- 2 5.0 1.0 1 10
r 4.824025 2 0 ack 40 ------- 1 4.0 0.0 1 8
4.82402  0  0  4  0  cwnd_ 2.000 
4.82402  0  0  4  0  ack_ 1
4.82402  0  0  4  0  rtt_ 2.420 
4.82402  0  0  4  0  cwnd_ 3.000 
+ 4.824025 0 2 tcp 1000 ------- 1 0.0 4.0 2 11
- 4.824025 0 2 tcp 1000 ------- 1 0.0 4.0 2 11
4.82402  0  0  4  0  maxseq_ 2
+ 4.824025 0 2 tcp 1000 ------- 1 0.0 4.0 3 12
4.82402  0  0  4  0  maxseq_ 3
+ 4.824025 0 2 tcp 1000 ------- 1 0.0 4.0 4 13
4.82402  0  0  4  0  maxseq_ 4
- 4.824027 0 2 tcp 1000 ------- 1 0.0 4.0 3 12
- 4.824029 0 2 tcp 1000 ------- 1 0.0 4.0 4 13
r 5.286024 3 5 tcp 1000 ------- 2 1.0 5.0 2 7
+ 5.286024 5 3 ack 40 ------- 2 5.0 1.0 2 14
- 5.286024 5 3 ack 40 ------- 2 5.0 1.0 2 14
r 5.402027 0 2 tcp 1000 ------- 1 0.0 4.0 2 11
+ 5.402027 2 3 tcp 1000 ------- 1 0.0 4.0 2 11
- 5.402027 2 3 tcp 1000 ------- 1 0.0 4.0 2 11
r 5.402029 0 2 tcp 1000 ------- 1 0.0 4.0 3 12
+ 5.402029 2 3 tcp 1000 ------- 1 0.0 4.0 3 12
r 5.402031 0 2 tcp 1000 ------- 1 0.0 4.0 4 13
+ 5.402031 2 3 tcp 1000 ------- 1 0.0 4.0 4 13
- 5.402035 2 3 tcp 1000 ------- 1 0.0 4.0 3 12
- 5.402043 2 3 tcp 1000 ------- 1 0.0 4.0 4 13
r 5.452035 2 3 tcp 1000 ------- 1 0.0 4.0 2 11
+ 5.452035 3 4 tcp 1000 ------- 1 0.0 4.0 2 11
- 5.452035 3 4 tcp 1000 ------- 1 0.0 4.0 2 11
r 5.452043 2 3 tcp 1000 ------- 1 0.0 4.0 3 12
+ 5.452043 3 4 tcp 1000 ------- 1 0.0 4.0 3 12
- 5.452043 3 4 tcp 1000 ------- 1 0.0 4.0 3 12
r 5.452051 2 3 tcp 1000 ------- 1 0.0 4.0 4 13
+ 5.452051 3 4 tcp 1000 ------- 1 0.0 4.0 4 13
- 5.452051 3 4 tcp 1000 ------- 1 0.0 4.0 4 13
r 5.618012 5 3 ack 40 ------- 2 5.0 1.0 0 9
+ 5.618012 3 2 ack 40 ------- 2 5.0 1.0 0 9
- 5.618012 3 2 ack 40 ------- 2 5.0 1.0 0 9
r 5.61802 5 3 ack 40 ------- 2 5.0 1.0 1 10
+ 5.61802 3 2 ack 40 ------- 2 5.0 1.0 1 10
- 5.61802 3 2 ack 40 ------- 2 5.0 1.0 1 10
r 5.668012 3 2 ack 40 ------- 2 5.0 1.0 0 9
+ 5.668012 2 1 ack 40 ------- 2 5.0 1.0 0 9
- 5.668012 2 1 ack 40 ------- 2 5.0 1.0 0 9
r 5.66802 3 2 ack 40 ------- 2 5.0 1.0 1 10
+ 5.66802 2 1 ack 40 ------- 2 5.0 1.0 1 10
- 5.66802 2 1 ack 40 ------- 2 5.0 1.0 1 10
r 6.030037 3 4 tcp 1000 ------- 1 0.0 4.0 2 11
+ 6.030037 4 3 ack 40 ------- 1 4.0 0.0 2 15
- 6.030037 4 3 ack 40 ------- 1 4.0 0.0 2 15
r 6.030045 3 4 tcp 1000 ------- 1 0.0 4.0 3 12
+ 6.030045 4 3 ack 40 ------- 1 4.0 0.0 3 16
- 6.030045 4 3 ack 40 ------- 1 4.0 0.0 3 16
r 6.030053 3 4 tcp 1000 ------- 1 0.0 4.0 4 13
+ 6.030053 4 3 ack 40 ------- 1 4.0 0.0 4 17
- 6.030053 4 3 ack 40 ------- 1 4.0 0.0 4 17
r 6.142025 5 3 ack 40 ------- 2 5.0 1.0 2 14
+ 6.142025 3 2 ack 40 ------- 2 5.0 1.0 2 14
- 6.142025 3 2 ack 40 ------- 2 5.0 1.0 2 14
r 6.192025 3 2 ack 40 ------- 2 5.0 1.0 2 14
+ 6.192025 2 1 ack 40 ------- 2 5.0 1.0 2 14
- 6.192025 2 1 ack 40 ------- 2 5.0 1.0 2 14
r 6.524012 2 1 ack 40 ------- 2 5.0 1.0 0 9
r 6.52402 2 1 ack 40 ------- 2 5.0 1.0 1 10
6.52402  1  0  5  0  cwnd_ 2.000 
6.52402  1  0  5  0  ack_ 1
6.52402  1  0  5  0  rtt_ 3.530 
6.52402  1  0  5  0  cwnd_ 2.500 
+ 6.52402 1 2 tcp 1000 ------- 2 1.0 5.0 3 18
- 6.52402 1 2 tcp 1000 ------- 2 1.0 5.0 3 18
6.52402  1  0  5  0  maxseq_ 3
r 6.608037 4 3 ack 40 ------- 1 4.0 0.0 2 15
+ 6.608037 3 2 ack 40 ------- 1 4.0 0.0 2 15
- 6.608037 3 2 ack 40 ------- 1 4.0 0.0 2 15
r 6.608045 4 3 ack 40 ------- 1 4.0 0.0 3 16
+ 6.608045 3 2 ack 40 ------- 1 4.0 0.0 3 16
- 6.608045 3 2 ack 40 ------- 1 4.0 0.0 3 16
r 6.608053 4 3 ack 40 ------- 1 4.0 0.0 4 17
+ 6.608053 3 2 ack 40 ------- 1 4.0 0.0 4 17
- 6.608053 3 2 ack 40 ------- 1 4.0 0.0 4 17
r 6.658037 3 2 ack 40 ------- 1 4.0 0.0 2 15
+ 6.658037 2 0 ack 40 ------- 1 4.0 0.0 2 15
- 6.658037 2 0 ack 40 ------- 1 4.0 0.0 2 15
r 6.658045 3 2 ack 40 ------- 1 4.0 0.0 3 16
+ 6.658045 2 0 ack 40 ------- 1 4.0 0.0 3 16
- 6.658045 2 0 ack 40 ------- 1 4.0 0.0 3 16
r 6.658053 3 2 ack 40 ------- 1 4.0 0.0 4 17
+ 6.658053 2 0 ack 40 ------- 1 4.0 0.0 4 17
- 6.658053 2 0 ack 40 ------- 1 4.0 0.0 4 17
r 7.048025 2 1 ack 40 ------- 2 5.0 1.0 2 14
7.04802  1  0  5  0  ack_ 2
+ 7.048025 1 2 tcp 1000 ------- 2 1.0 5.0 4 19
- 7.048025 1 2 tcp 1000 ------- 2 1.0 5.0 4 19
7.04802  1  0  5  0  maxseq_ 4
r 7.236037 2 0 ack 40 ------- 1 4.0 0.0 2 15
7.23604  0  0  4  0  ack_ 2
7.23604  0  0  4  0  rtt_ 2.410 
+ 7.236037 0 2 tcp 1000 ------- 1 0.0 4.0 5 20
- 7.236037 0 2 tcp 1000 ------- 1 0.0 4.0 5 20
7.23604  0  0  4  0  maxseq_ 5
r 7.236045 2 0 ack 40 ------- 1 4.0 0.0 3 16
7.23605  0  0  4  0  ack_ 3
+ 7.236045 0 2 tcp 1000 ------- 1 0.0 4.0 6 21
- 7.236045 0 2 tcp 1000 ------- 1 0.0 4.0 6 21
7.23605  0  0  4  0  maxseq_ 6
r 7.236053 2 0 ack 40 ------- 1 4.0 0.0 4 17
7.23605  0  0  4  0  ack_ 4
+ 7.236053 0 2 tcp 1000 ------- 1 0.0 4.0 7 22
- 7.236053 0 2 tcp 1000 ------- 1 0.0 4.0 7 22
7.23605  0  0  4  0  maxseq_ 7
r 7.380022 1 2 tcp 1000 ------- 2 1.0 5.0 3 18
+ 7.380022 2 3 tcp 1000 ------- 2 1.0 5.0 3 18
- 7.380022 2 3 tcp 1000 ------- 2 1.0 5.0 3 18
r 7.43003 2 3 tcp 1000 ------- 2 1.0 5.0 3 18
+ 7.43003 3 5 tcp 1000 ------- 2 1.0 5.0 3 18
- 7.43003 3 5 tcp 1000 ------- 2 1.0 5.0 3 18
r 7.814039 0 2 tcp 1000 ------- 1 0.0 4.0 5 20
+ 7.814039 2 3 tcp 1000 ------- 1 0.0 4.0 5 20
- 7.814039 2 3 tcp 1000 ------- 1 0.0 4.0 5 20
r 7.814047 0 2 tcp 1000 ------- 1 0.0 4.0 6 21
+ 7.814047 2 3 tcp 1000 ------- 1 0.0 4.0 6 21
- 7.814047 2 3 tcp 1000 ------- 1 0.0 4.0 6 21
r 7.814055 0 2 tcp 1000 ------- 1 0.0 4.0 7 22
+ 7.814055 2 3 tcp 1000 ------- 1 0.0 4.0 7 22
- 7.814055 2 3 tcp 1000 ------- 1 0.0 4.0 7 22
r 7.864047 2 3 tcp 1000 ------- 1 0.0 4.0 5 20
+ 7.864047 3 4 tcp 1000 ------- 1 0.0 4.0 5 20
- 7.864047 3 4 tcp 1000 ------- 1 0.0 4.0 5 20
r 7.864055 2 3 tcp 1000 ------- 1 0.0 4.0 6 21
+ 7.864055 3 4 tcp 1000 ------- 1 0.0 4.0 6 21
- 7.864055 3 4 tcp 1000 ------- 1 0.0 4.0 6 21
r 7.864063 2 3 tcp 1000 ------- 1 0.0 4.0 7 22
+ 7.864063 3 4 tcp 1000 ------- 1 0.0 4.0 7 22
- 7.864063 3 4 tcp 1000 ------- 1 0.0 4.0 7 22
r 7.904027 1 2 tcp 1000 ------- 2 1.0 5.0 4 19
+ 7.904027 2 3 tcp 1000 ------- 2 1.0 5.0 4 19
- 7.904027 2 3 tcp 1000 ------- 2 1.0 5.0 4 19
r 7.954035 2 3 tcp 1000 ------- 2 1.0 5.0 4 19
+ 7.954035 3 5 tcp 1000 ------- 2 1.0 5.0 4 19
- 7.954035 3 5 tcp 1000 ------- 2 1.0 5.0 4 19
r 8.286032 3 5 tcp 1000 ------- 2 1.0 5.0 3 18
+ 8.286032 5 3 ack 40 ------- 2 5.0 1.0 3 23
- 8.286032 5 3 ack 40 ------- 2 5.0 1.0 3 23
r 8.442049 3 4 tcp 1000 ------- 1 0.0 4.0 5 20
+ 8.442049 4 3 ack 40 ------- 1 4.0 0.0 5 24
- 8.442049 4 3 ack 40 ------- 1 4.0 0.0 5 24
r 8.442057 3 4 tcp 1000 ------- 1 0.0 4.0 6 21
+ 8.442057 4 3 ack 40 ------- 1 4.0 0.0 6 25
- 8.442057 4 3 ack 40 ------- 1 4.0 0.0 6 25
r 8.442065 3 4 tcp 1000 ------- 1 0.0 4.0 7 22
+ 8.442065 4 3 ack 40 ------- 1 4.0 0.0 7 26
- 8.442065 4 3 ack 40 ------- 1 4.0 0.0 7 26
r 8.810037 3 5 tcp 1000 ------- 2 1.0 5.0 4 19
+ 8.810037 5 3 ack 40 ------- 2 5.0 1.0 4 27
- 8.810037 5 3 ack 40 ------- 2 5.0 1.0 4 27
r 9.02005 4 3 ack 40 ------- 1 4.0 0.0 5 24
+ 9.02005 3 2 ack 40 ------- 1 4.0 0.0 5 24
- 9.02005 3 2 ack 40 ------- 1 4.0 0.0 5 24
r 9.020058 4 3 ack 40 ------- 1 4.0 0.0 6 25
+ 9.020058 3 2 ack 40 ------- 1 4.0 0.0 6 25
- 9.020058 3 2 ack 40 ------- 1 4.0 0.0 6 25
r 9.020066 4 3 ack 40 ------- 1 4.0 0.0 7 26
+ 9.020066 3 2 ack 40 ------- 1 4.0 0.0 7 26
- 9.020066 3 2 ack 40 ------- 1 4.0 0.0 7 26
r 9.07005 3 2 ack 40 ------- 1 4.0 0.0 5 24
+ 9.07005 2 0 ack 40 ------- 1 4.0 0.0 5 24
- 9.07005 2 0 ack 40 ------- 1 4.0 0.0 5 24
r 9.070058 3 2 ack 40 ------- 1 4.0 0.0 6 25
+ 9.070058 2 0 ack 40 ------- 1 4.0 0.0 6 25
- 9.070058 2 0 ack 40 ------- 1 4.0 0.0 6 25
r 9.070066 3 2 ack 40 ------- 1 4.0 0.0 7 26
+ 9.070066 2 0 ack 40 ------- 1 4.0 0.0 7 26
- 9.070066 2 0 ack 40 ------- 1 4.0 0.0 7 26
r 9.142033 5 3 ack 40 ------- 2 5.0 1.0 3 23
+ 9.142033 3 2 ack 40 ------- 2 5.0 1.0 3 23
- 9.142033 3 2 ack 40 ------- 2 5.0 1.0 3 23
r 9.192033 3 2 ack 40 ------- 2 5.0 1.0 3 23
+ 9.192033 2 1 ack 40 ------- 2 5.0 1.0 3 23
- 9.192033 2 1 ack 40 ------- 2 5.0 1.0 3 23
r 9.64805 2 0 ack 40 ------- 1 4.0 0.0 5 24
9.64805  0  0  4  0  ack_ 5
9.64805  0  0  4  0  cwnd_ 4.000 
+ 9.64805 0 2 tcp 1000 ------- 1 0.0 4.0 8 28
- 9.64805 0 2 tcp 1000 ------- 1 0.0 4.0 8 28
9.64805  0  0  4  0  maxseq_ 8
+ 9.64805 0 2 tcp 1000 ------- 1 0.0 4.0 9 29
9.64805  0  0  4  0  maxseq_ 9
- 9.648052 0 2 tcp 1000 ------- 1 0.0 4.0 9 29
r 9.648058 2 0 ack 40 ------- 1 4.0 0.0 6 25
9.64806  0  0  4  0  ack_ 6
9.64806  0  0  4  0  cwnd_ 5.000 
+ 9.648058 0 2 tcp 1000 ------- 1 0.0 4.0 10 30
- 9.648058 0 2 tcp 1000 ------- 1 0.0 4.0 10 30
9.64806  0  0  4  0  maxseq_ 10
+ 9.648058 0 2 tcp 1000 ------- 1 0.0 4.0 11 31
9.64806  0  0  4  0  maxseq_ 11
- 9.64806 0 2 tcp 1000 ------- 1 0.0 4.0 11 31
r 9.648066 2 0 ack 40 ------- 1 4.0 0.0 7 26
9.64807  0  0  4  0  ack_ 7
9.64807  0  0  4  0  cwnd_ 6.000 
+ 9.648066 0 2 tcp 1000 ------- 1 0.0 4.0 12 32
- 9.648066 0 2 tcp 1000 ------- 1 0.0 4.0 12 32
9.64807  0  0  4  0  maxseq_ 12
+ 9.648066 0 2 tcp 1000 ------- 1 0.0 4.0 13 33
9.64807  0  0  4  0  maxseq_ 13
- 9.648068 0 2 tcp 1000 ------- 1 0.0 4.0 13 33
r 9.666037 5 3 ack 40 ------- 2 5.0 1.0 4 27
+ 9.666037 3 2 ack 40 ------- 2 5.0 1.0 4 27
- 9.666037 3 2 ack 40 ------- 2 5.0 1.0 4 27
r 9.716037 3 2 ack 40 ------- 2 5.0 1.0 4 27
+ 9.716037 2 1 ack 40 ------- 2 5.0 1.0 4 27
- 9.716037 2 1 ack 40 ------- 2 5.0 1.0 4 27
r 10.048033 2 1 ack 40 ------- 2 5.0 1.0 3 23
10.04803 1  0  5  0  ack_ 3
10.04803 1  0  5  0  rtt_ 3.520 
+ 10.048033 1 2 tcp 1000 ------- 2 1.0 5.0 5 34
- 10.048033 1 2 tcp 1000 ------- 2 1.0 5.0 5 34
10.04803 1  0  5  0  maxseq_ 5
r 10.226052 0 2 tcp 1000 ------- 1 0.0 4.0 8 28
+ 10.226052 2 3 tcp 1000 ------- 1 0.0 4.0 8 28
- 10.226052 2 3 tcp 1000 ------- 1 0.0 4.0 8 28
r 10.226054 0 2 tcp 1000 ------- 1 0.0 4.0 9 29
+ 10.226054 2 3 tcp 1000 ------- 1 0.0 4.0 9 29
- 10.22606 2 3 tcp 1000 ------- 1 0.0 4.0 9 29
r 10.22606 0 2 tcp 1000 ------- 1 0.0 4.0 10 30
+ 10.22606 2 3 tcp 1000 ------- 1 0.0 4.0 10 30
r 10.226062 0 2 tcp 1000 ------- 1 0.0 4.0 11 31
+ 10.226062 2 3 tcp 1000 ------- 1 0.0 4.0 11 31
- 10.226068 2 3 tcp 1000 ------- 1 0.0 4.0 10 30
r 10.226068 0 2 tcp 1000 ------- 1 0.0 4.0 12 32
+ 10.226068 2 3 tcp 1000 ------- 1 0.0 4.0 12 32
r 10.22607 0 2 tcp 1000 ------- 1 0.0 4.0 13 33
+ 10.22607 2 3 tcp 1000 ------- 1 0.0 4.0 13 33
- 10.226076 2 3 tcp 1000 ------- 1 0.0 4.0 11 31
- 10.226084 2 3 tcp 1000 ------- 1 0.0 4.0 12 32
- 10.226092 2 3 tcp 1000 ------- 1 0.0 4.0 13 33
r 10.27606 2 3 tcp 1000 ------- 1 0.0 4.0 8 28
+ 10.27606 3 4 tcp 1000 ------- 1 0.0 4.0 8 28
- 10.27606 3 4 tcp 1000 ------- 1 0.0 4.0 8 28
r 10.276068 2 3 tcp 1000 ------- 1 0.0 4.0 9 29
+ 10.276068 3 4 tcp 1000 ------- 1 0.0 4.0 9 29
- 10.276068 3 4 tcp 1000 ------- 1 0.0 4.0 9 29
r 10.276076 2 3 tcp 1000 ------- 1 0.0 4.0 10 30
+ 10.276076 3 4 tcp 1000 ------- 1 0.0 4.0 10 30
- 10.276076 3 4 tcp 1000 ------- 1 0.0 4.0 10 30
r 10.276084 2 3 tcp 1000 ------- 1 0.0 4.0 11 31
+ 10.276084 3 4 tcp 1000 ------- 1 0.0 4.0 11 31
- 10.276084 3 4 tcp 1000 ------- 1 0.0 4.0 11 31
r 10.276092 2 3 tcp 1000 ------- 1 0.0 4.0 12 32
+ 10.276092 3 4 tcp 1000 ------- 1 0.0 4.0 12 32
- 10.276092 3 4 tcp 1000 ------- 1 0.0 4.0 12 32
r 10.2761 2 3 tcp 1000 ------- 1 0.0 4.0 13 33
+ 10.2761 3 4 tcp 1000 ------- 1 0.0 4.0 13 33
- 10.2761 3 4 tcp 1000 ------- 1 0.0 4.0 13 33
r 10.572037 2 1 ack 40 ------- 2 5.0 1.0 4 27
10.57204 1  0  5  0  ack_ 4
+ 10.572037 1 2 tcp 1000 ------- 2 1.0 5.0 6 35
- 10.572037 1 2 tcp 1000 ------- 2 1.0 5.0 6 35
10.57204 1  0  5  0  maxseq_ 6
r 10.854062 3 4 tcp 1000 ------- 1 0.0 4.0 8 28
+ 10.854062 4 3 ack 40 ------- 1 4.0 0.0 8 36
- 10.854062 4 3 ack 40 ------- 1 4.0 0.0 8 36
r 10.85407 3 4 tcp 1000 ------- 1 0.0 4.0 9 29
+ 10.85407 4 3 ack 40 ------- 1 4.0 0.0 9 37
- 10.85407 4 3 ack 40 ------- 1 4.0 0.0 9 37
r 10.854078 3 4 tcp 1000 ------- 1 0.0 4.0 10 30
+ 10.854078 4 3 ack 40 ------- 1 4.0 0.0 10 38
- 10.854078 4 3 ack 40 ------- 1 4.0 0.0 10 38
r 10.854086 3 4 tcp 1000 ------- 1 0.0 4.0 11 31
+ 10.854086 4 3 ack 40 ------- 1 4.0 0.0 11 39
- 10.854086 4 3 ack 40 ------- 1 4.0 0.0 11 39
r 10.854094 3 4 tcp 1000 ------- 1 0.0 4.0 12 32
+ 10.854094 4 3 ack 40 ------- 1 4.0 0.0 12 40
- 10.854094 4 3 ack 40 ------- 1 4.0 0.0 12 40
r 10.854102 3 4 tcp 1000 ------- 1 0.0 4.0 13 33
+ 10.854102 4 3 ack 40 ------- 1 4.0 0.0 13 41
- 10.854102 4 3 ack 40 ------- 1 4.0 0.0 13 41
r 10.904035 1 2 tcp 1000 ------- 2 1.0 5.0 5 34
+ 10.904035 2 3 tcp 1000 ------- 2 1.0 5.0 5 34
- 10.904035 2 3 tcp 1000 ------- 2 1.0 5.0 5 34
r 10.954043 2 3 tcp 1000 ------- 2 1.0 5.0 5 34
+ 10.954043 3 5 tcp 1000 ------- 2 1.0 5.0 5 34
- 10.954043 3 5 tcp 1000 ------- 2 1.0 5.0 5 34
r 11.428039 1 2 tcp 1000 ------- 2 1.0 5.0 6 35
+ 11.428039 2 3 tcp 1000 ------- 2 1.0 5.0 6 35
- 11.428039 2 3 tcp 1000 ------- 2 1.0 5.0 6 35
r 11.432062 4 3 ack 40 ------- 1 4.0 0.0 8 36
+ 11.432062 3 2 ack 40 ------- 1 4.0 0.0 8 36
- 11.432062 3 2 ack 40 ------- 1 4.0 0.0 8 36
r 11.43207 4 3 ack 40 ------- 1 4.0 0.0 9 37
+ 11.43207 3 2 ack 40 ------- 1 4.0 0.0 9 37
- 11.43207 3 2 ack 40 ------- 1 4.0 0.0 9 37
r 11.432078 4 3 ack 40 ------- 1 4.0 0.0 10 38
+ 11.432078 3 2 ack 40 ------- 1 4.0 0.0 10 38
- 11.432078 3 2 ack 40 ------- 1 4.0 0.0 10 38
r 11.432086 4 3 ack 40 ------- 1 4.0 0.0 11 39
+ 11.432086 3 2 ack 40 ------- 1 4.0 0.0 11 39
- 11.432086 3 2 ack 40 ------- 1 4.0 0.0 11 39
r 11.432094 4 3 ack 40 ------- 1 4.0 0.0 12 40
+ 11.432094 3 2 ack 40 ------- 1 4.0 0.0 12 40
- 11.432094 3 2 ack 40 ------- 1 4.0 0.0 12 40
r 11.432102 4 3 ack 40 ------- 1 4.0 0.0 13 41
+ 11.432102 3 2 ack 40 ------- 1 4.0 0.0 13 41
- 11.432102 3 2 ack 40 ------- 1 4.0 0.0 13 41
r 11.478047 2 3 tcp 1000 ------- 2 1.0 5.0 6 35
+ 11.478047 3 5 tcp 1000 ------- 2 1.0 5.0 6 35
- 11.478047 3 5 tcp 1000 ------- 2 1.0 5.0 6 35
r 11.482062 3 2 ack 40 ------- 1 4.0 0.0 8 36
+ 11.482062 2 0 ack 40 ------- 1 4.0 0.0 8 36
- 11.482062 2 0 ack 40 ------- 1 4.0 0.0 8 36
r 11.48207 3 2 ack 40 ------- 1 4.0 0.0 9 37
+ 11.48207 2 0 ack 40 ------- 1 4.0 0.0 9 37
- 11.48207 2 0 ack 40 ------- 1 4.0 0.0 9 37
r 11.482078 3 2 ack 40 ------- 1 4.0 0.0 10 38
+ 11.482078 2 0 ack 40 ------- 1 4.0 0.0 10 38
- 11.482078 2 0 ack 40 ------- 1 4.0 0.0 10 38
r 11.482086 3 2 ack 40 ------- 1 4.0 0.0 11 39
+ 11.482086 2 0 ack 40 ------- 1 4.0 0.0 11 39
- 11.482086 2 0 ack 40 ------- 1 4.0 0.0 11 39
r 11.482094 3 2 ack 40 ------- 1 4.0 0.0 12 40
+ 11.482094 2 0 ack 40 ------- 1 4.0 0.0 12 40
- 11.482094 2 0 ack 40 ------- 1 4.0 0.0 12 40
r 11.482102 3 2 ack 40 ------- 1 4.0 0.0 13 41
+ 11.482102 2 0 ack 40 ------- 1 4.0 0.0 13 41
- 11.482102 2 0 ack 40 ------- 1 4.0 0.0 13 41
r 11.810045 3 5 tcp 1000 ------- 2 1.0 5.0 5 34
+ 11.810045 5 3 ack 40 ------- 2 5.0 1.0 5 42
- 11.810045 5 3 ack 40 ------- 2 5.0 1.0 5 42
r 12.060062 2 0 ack 40 ------- 1 4.0 0.0 8 36
12.06006 0  0  4  0  ack_ 8
+ 12.060062 0 2 tcp 1000 ------- 1 0.0 4.0 14 43
- 12.060062 0 2 tcp 1000 ------- 1 0.0 4.0 14 43
12.06006 0  0  4  0  maxseq_ 14
r 12.06007 2 0 ack 40 ------- 1 4.0 0.0 9 37
12.06007 0  0  4  0  ack_ 9
+ 12.06007 0 2 tcp 1000 ------- 1 0.0 4.0 15 44
- 12.06007 0 2 tcp 1000 ------- 1 0.0 4.0 15 44
12.06007 0  0  4  0  maxseq_ 15
r 12.060078 2 0 ack 40 ------- 1 4.0 0.0 10 38
12.06008 0  0  4  0  ack_ 10
+ 12.060078 0 2 tcp 1000 ------- 1 0.0 4.0 16 45
- 12.060078 0 2 tcp 1000 ------- 1 0.0 4.0 16 45
12.06008 0  0  4  0  maxseq_ 16
r 12.060086 2 0 ack 40 ------- 1 4.0 0.0 11 39
12.06009 0  0  4  0  ack_ 11
+ 12.060086 0 2 tcp 1000 ------- 1 0.0 4.0 17 46
- 12.060086 0 2 tcp 1000 ------- 1 0.0 4.0 17 46
12.06009 0  0  4  0  maxseq_ 17
r 12.060094 2 0 ack 40 ------- 1 4.0 0.0 12 40
12.06009 0  0  4  0  ack_ 12
+ 12.060094 0 2 tcp 1000 ------- 1 0.0 4.0 18 47
- 12.060094 0 2 tcp 1000 ------- 1 0.0 4.0 18 47
12.06009 0  0  4  0  maxseq_ 18
r 12.060102 2 0 ack 40 ------- 1 4.0 0.0 13 41
12.06010 0  0  4  0  ack_ 13
+ 12.060102 0 2 tcp 1000 ------- 1 0.0 4.0 19 48
- 12.060102 0 2 tcp 1000 ------- 1 0.0 4.0 19 48
12.06010 0  0  4  0  maxseq_ 19
r 12.334049 3 5 tcp 1000 ------- 2 1.0 5.0 6 35
+ 12.334049 5 3 ack 40 ------- 2 5.0 1.0 6 49
- 12.334049 5 3 ack 40 ------- 2 5.0 1.0 6 49
r 12.638064 0 2 tcp 1000 ------- 1 0.0 4.0 14 43
+ 12.638064 2 3 tcp 1000 ------- 1 0.0 4.0 14 43
- 12.638064 2 3 tcp 1000 ------- 1 0.0 4.0 14 43
r 12.638072 0 2 tcp 1000 ------- 1 0.0 4.0 15 44
+ 12.638072 2 3 tcp 1000 ------- 1 0.0 4.0 15 44
- 12.638072 2 3 tcp 1000 ------- 1 0.0 4.0 15 44
r 12.63808 0 2 tcp 1000 ------- 1 0.0 4.0 16 45
+ 12.63808 2 3 tcp 1000 ------- 1 0.0 4.0 16 45
- 12.63808 2 3 tcp 1000 ------- 1 0.0 4.0 16 45
r 12.638088 0 2 tcp 1000 ------- 1 0.0 4.0 17 46
+ 12.638088 2 3 tcp 1000 ------- 1 0.0 4.0 17 46
- 12.638088 2 3 tcp 1000 ------- 1 0.0 4.0 17 46
r 12.638096 0 2 tcp 1000 ------- 1 0.0 4.0 18 47
+ 12.638096 2 3 tcp 1000 ------- 1 0.0 4.0 18 47
- 12.638096 2 3 tcp 1000 ------- 1 0.0 4.0 18 47
r 12.638104 0 2 tcp 1000 ------- 1 0.0 4.0 19 48
+ 12.638104 2 3 tcp 1000 ------- 1 0.0 4.0 19 48
- 12.638104 2 3 tcp 1000 ------- 1 0.0 4.0 19 48
r 12.666045 5 3 ack 40 ------- 2 5.0 1.0 5 42
+ 12.666045 3 2 ack 40 ------- 2 5.0 1.0 5 42
- 12.666045 3 2 ack 40 ------- 2 5.0 1.0 5 42
r 12.688072 2 3 tcp 1000 ------- 1 0.0 4.0 14 43
+ 12.688072 3 4 tcp 1000 ------- 1 0.0 4.0 14 43
- 12.688072 3 4 tcp 1000 ------- 1 0.0 4.0 14 43
r 12.68808 2 3 tcp 1000 ------- 1 0.0 4.0 15 44
+ 12.68808 3 4 tcp 1000 ------- 1 0.0 4.0 15 44
- 12.68808 3 4 tcp 1000 ------- 1 0.0 4.0 15 44
r 12.688088 2 3 tcp 1000 ------- 1 0.0 4.0 16 45
+ 12.688088 3 4 tcp 1000 ------- 1 0.0 4.0 16 45
- 12.688088 3 4 tcp 1000 ------- 1 0.0 4.0 16 45
r 12.688096 2 3 tcp 1000 ------- 1 0.0 4.0 17 46
+ 12.688096 3 4 tcp 1000 ------- 1 0.0 4.0 17 46
- 12.688096 3 4 tcp 1000 ------- 1 0.0 4.0 17 46
r 12.688104 2 3 tcp 1000 ------- 1 0.0 4.0 18 47
+ 12.688104 3 4 tcp 1000 ------- 1 0.0 4.0 18 47
- 12.688104 3 4 tcp 1000 ------- 1 0.0 4.0 18 47
r 12.688112 2 3 tcp 1000 ------- 1 0.0 4.0 19 48
+ 12.688112 3 4 tcp 1000 ------- 1 0.0 4.0 19 48
- 12.688112 3 4 tcp 1000 ------- 1 0.0 4.0 19 48
r 12.716045 3 2 ack 40 ------- 2 5.0 1.0 5 42
+ 12.716045 2 1 ack 40 ------- 2 5.0 1.0 5 42
- 12.716045 2 1 ack 40 ------- 2 5.0 1.0 5 42
r 13.19005 5 3 ack 40 ------- 2 5.0 1.0 6 49
+ 13.19005 3 2 ack 40 ------- 2 5.0 1.0 6 49
- 13.19005 3 2 ack 40 ------- 2 5.0 1.0 6 49
r 13.24005 3 2 ack 40 ------- 2 5.0 1.0 6 49
+ 13.24005 2 1 ack 40 ------- 2 5.0 1.0 6 49
- 13.24005 2 1 ack 40 ------- 2 5.0 1.0 6 49
r 13.266074 3 4 tcp 1000 ------- 1 0.0 4.0 14 43
+ 13.266074 4 3 ack 40 ------- 1 4.0 0.0 14 50
- 13.266074 4 3 ack 40 ------- 1 4.0 0.0 14 50
r 13.266082 3 4 tcp 1000 ------- 1 0.0 4.0 15 44
+ 13.266082 4 3 ack 40 ------- 1 4.0 0.0 15 51
- 13.266082 4 3 ack 40 ------- 1 4.0 0.0 15 51
r 13.26609 3 4 tcp 1000 ------- 1 0.0 4.0 16 45
+ 13.26609 4 3 ack 40 ------- 1 4.0 0.0 16 52
- 13.26609 4 3 ack 40 ------- 1 4.0 0.0 16 52
r 13.266098 3 4 tcp 1000 ------- 1 0.0 4.0 17 46
+ 13.266098 4 3 ack 40 ------- 1 4.0 0.0 17 53
- 13.266098 4 3 ack 40 ------- 1 4.0 0.0 17 53
r 13.266106 3 4 tcp 1000 ------- 1 0.0 4.0 18 47
+ 13.266106 4 3 ack 40 ------- 1 4.0 0.0 18 54
- 13.266106 4 3 ack 40 ------- 1 4.0 0.0 18 54
r 13.266114 3 4 tcp 1000 ------- 1 0.0 4.0 19 48
+ 13.266114 4 3 ack 40 ------- 1 4.0 0.0 19 55
- 13.266114 4 3 ack 40 ------- 1 4.0 0.0 19 55
r 13.572045 2 1 ack 40 ------- 2 5.0 1.0 5 42
13.57205 1  0  5  0  ack_ 5
+ 13.572045 1 2 tcp 1000 ------- 2 1.0 5.0 7 56
- 13.572045 1 2 tcp 1000 ------- 2 1.0 5.0 7 56
13.57205 1  0  5  0  maxseq_ 7
r 13.844074 4 3 ack 40 ------- 1 4.0 0.0 14 50
+ 13.844074 3 2 ack 40 ------- 1 4.0 0.0 14 50
- 13.844074 3 2 ack 40 ------- 1 4.0 0.0 14 50
r 13.844082 4 3 ack 40 ------- 1 4.0 0.0 15 51
+ 13.844082 3 2 ack 40 ------- 1 4.0 0.0 15 51
- 13.844082 3 2 ack 40 ------- 1 4.0 0.0 15 51
r 13.84409 4 3 ack 40 ------- 1 4.0 0.0 16 52
+ 13.84409 3 2 ack 40 ------- 1 4.0 0.0 16 52
- 13.84409 3 2 ack 40 ------- 1 4.0 0.0 16 52
r 13.844098 4 3 ack 40 ------- 1 4.0 0.0 17 53
+ 13.844098 3 2 ack 40 ------- 1 4.0 0.0 17 53
- 13.844098 3 2 ack 40 ------- 1 4.0 0.0 17 53
r 13.844106 4 3 ack 40 ------- 1 4.0 0.0 18 54
+ 13.844106 3 2 ack 40 ------- 1 4.0 0.0 18 54
- 13.844106 3 2 ack 40 ------- 1 4.0 0.0 18 54
r 13.844114 4 3 ack 40 ------- 1 4.0 0.0 19 55
+ 13.844114 3 2 ack 40 ------- 1 4.0 0.0 19 55
- 13.844114 3 2 ack 40 ------- 1 4.0 0.0 19 55
r 13.894075 3 2 ack 40 ------- 1 4.0 0.0 14 50
+ 13.894075 2 0 ack 40 ------- 1 4.0 0.0 14 50
- 13.894075 2 0 ack 40 ------- 1 4.0 0.0 14 50
r 13.894083 3 2 ack 40 ------- 1 4.0 0.0 15 51
+ 13.894083 2 0 ack 40 ------- 1 4.0 0.0 15 51
- 13.894083 2 0 ack 40 ------- 1 4.0 0.0 15 51
r 13.894091 3 2 ack 40 ------- 1 4.0 0.0 16 52
+ 13.894091 2 0 ack 40 ------- 1 4.0 0.0 16 52
- 13.894091 2 0 ack 40 ------- 1 4.0 0.0 16 52
r 13.894099 3 2 ack 40 ------- 1 4.0 0.0 17 53
+ 13.894099 2 0 ack 40 ------- 1 4.0 0.0 17 53
- 13.894099 2 0 ack 40 ------- 1 4.0 0.0 17 53
r 13.894107 3 2 ack 40 ------- 1 4.0 0.0 18 54
+ 13.894107 2 0 ack 40 ------- 1 4.0 0.0 18 54
- 13.894107 2 0 ack 40 ------- 1 4.0 0.0 18 54
r 13.894115 3 2 ack 40 ------- 1 4.0 0.0 19 55
+ 13.894115 2 0 ack 40 ------- 1 4.0 0.0 19 55
- 13.894115 2 0 ack 40 ------- 1 4.0 0.0 19 55
r 14.09605 2 1 ack 40 ------- 2 5.0 1.0 6 49
14.09605 1  0  5  0  ack_ 6
+ 14.09605 1 2 tcp 1000 ------- 2 1.0 5.0 8 57
- 14.09605 1 2 tcp 1000 ------- 2 1.0 5.0 8 57
14.09605 1  0  5  0  maxseq_ 8
r 14.428047 1 2 tcp 1000 ------- 2 1.0 5.0 7 56
+ 14.428047 2 3 tcp 1000 ------- 2 1.0 5.0 7 56
- 14.428047 2 3 tcp 1000 ------- 2 1.0 5.0 7 56
r 14.472075 2 0 ack 40 ------- 1 4.0 0.0 14 50
14.47207 0  0  4  0  ack_ 14
14.47207 0  0  4  0  cwnd_ 7.000 
+ 14.472075 0 2 tcp 1000 ------- 1 0.0 4.0 20 58
- 14.472075 0 2 tcp 1000 ------- 1 0.0 4.0 20 58
14.47207 0  0  4  0  maxseq_ 20
+ 14.472075 0 2 tcp 1000 ------- 1 0.0 4.0 21 59
14.47207 0  0  4  0  maxseq_ 21
- 14.472077 0 2 tcp 1000 ------- 1 0.0 4.0 21 59
r 14.472083 2 0 ack 40 ------- 1 4.0 0.0 15 51
14.47208 0  0  4  0  ack_ 15
14.47208 0  0  4  0  cwnd_ 8.000 
+ 14.472083 0 2 tcp 1000 ------- 1 0.0 4.0 22 60
- 14.472083 0 2 tcp 1000 ------- 1 0.0 4.0 22 60
14.47208 0  0  4  0  maxseq_ 22
+ 14.472083 0 2 tcp 1000 ------- 1 0.0 4.0 23 61
14.47208 0  0  4  0  maxseq_ 23
- 14.472085 0 2 tcp 1000 ------- 1 0.0 4.0 23 61
r 14.472091 2 0 ack 40 ------- 1 4.0 0.0 16 52
14.47209 0  0  4  0  ack_ 16
14.47209 0  0  4  0  cwnd_ 9.000 
+ 14.472091 0 2 tcp 1000 ------- 1 0.0 4.0 24 62
- 14.472091 0 2 tcp 1000 ------- 1 0.0 4.0 24 62
14.47209 0  0  4  0  maxseq_ 24
+ 14.472091 0 2 tcp 1000 ------- 1 0.0 4.0 25 63
14.47209 0  0  4  0  maxseq_ 25
- 14.472093 0 2 tcp 1000 ------- 1 0.0 4.0 25 63
r 14.472099 2 0 ack 40 ------- 1 4.0 0.0 17 53
14.47210 0  0  4  0  ack_ 17
14.47210 0  0  4  0  cwnd_ 10.000
+ 14.472099 0 2 tcp 1000 ------- 1 0.0 4.0 26 64
- 14.472099 0 2 tcp 1000 ------- 1 0.0 4.0 26 64
14.47210 0  0  4  0  maxseq_ 26
+ 14.472099 0 2 tcp 1000 ------- 1 0.0 4.0 27 65
14.47210 0  0  4  0  maxseq_ 27
- 14.472101 0 2 tcp 1000 ------- 1 0.0 4.0 27 65
r 14.472107 2 0 ack 40 ------- 1 4.0 0.0 18 54
14.47211 0  0  4  0  ack_ 18
14.47211 0  0  4  0  cwnd_ 11.000
+ 14.472107 0 2 tcp 1000 ------- 1 0.0 4.0 28 66
- 14.472107 0 2 tcp 1000 ------- 1 0.0 4.0 28 66
14.47211 0  0  4  0  maxseq_ 28
+ 14.472107 0 2 tcp 1000 ------- 1 0.0 4.0 29 67
14.47211 0  0  4  0  maxseq_ 29
- 14.472109 0 2 tcp 1000 ------- 1 0.0 4.0 29 67
r 14.472115 2 0 ack 40 ------- 1 4.0 0.0 19 55
14.47211 0  0  4  0  ack_ 19
14.47211 0  0  4  0  cwnd_ 12.000
+ 14.472115 0 2 tcp 1000 ------- 1 0.0 4.0 30 68
- 14.472115 0 2 tcp 1000 ------- 1 0.0 4.0 30 68
14.47211 0  0  4  0  maxseq_ 30
+ 14.472115 0 2 tcp 1000 ------- 1 0.0 4.0 31 69
14.47211 0  0  4  0  maxseq_ 31
- 14.472117 0 2 tcp 1000 ------- 1 0.0 4.0 31 69
r 14.478055 2 3 tcp 1000 ------- 2 1.0 5.0 7 56
+ 14.478055 3 5 tcp 1000 ------- 2 1.0 5.0 7 56
- 14.478055 3 5 tcp 1000 ------- 2 1.0 5.0 7 56
r 14.952052 1 2 tcp 1000 ------- 2 1.0 5.0 8 57
+ 14.952052 2 3 tcp 1000 ------- 2 1.0 5.0 8 57
- 14.952052 2 3 tcp 1000 ------- 2 1.0 5.0 8 57
r 15.00206 2 3 tcp 1000 ------- 2 1.0 5.0 8 57
+ 15.00206 3 5 tcp 1000 ------- 2 1.0 5.0 8 57
- 15.00206 3 5 tcp 1000 ------- 2 1.0 5.0 8 57
r 15.050077 0 2 tcp 1000 ------- 1 0.0 4.0 20 58
+ 15.050077 2 3 tcp 1000 ------- 1 0.0 4.0 20 58
- 15.050077 2 3 tcp 1000 ------- 1 0.0 4.0 20 58
r 15.050079 0 2 tcp 1000 ------- 1 0.0 4.0 21 59
+ 15.050079 2 3 tcp 1000 ------- 1 0.0 4.0 21 59
r 15.050085 0 2 tcp 1000 ------- 1 0.0 4.0 22 60
+ 15.050085 2 3 tcp 1000 ------- 1 0.0 4.0 22 60
- 15.050085 2 3 tcp 1000 ------- 1 0.0 4.0 21 59
r 15.050087 0 2 tcp 1000 ------- 1 0.0 4.0 23 61
+ 15.050087 2 3 tcp 1000 ------- 1 0.0 4.0 23 61
r 15.050093 0 2 tcp 1000 ------- 1 0.0 4.0 24 62
+ 15.050093 2 3 tcp 1000 ------- 1 0.0 4.0 24 62
- 15.050093 2 3 tcp 1000 ------- 1 0.0 4.0 22 60
r 15.050095 0 2 tcp 1000 ------- 1 0.0 4.0 25 63
+ 15.050095 2 3 tcp 1000 ------- 1 0.0 4.0 25 63
r 15.050101 0 2 tcp 1000 ------- 1 0.0 4.0 26 64
+ 15.050101 2 3 tcp 1000 ------- 1 0.0 4.0 26 64
- 15.050101 2 3 tcp 1000 ------- 1 0.0 4.0 23 61
r 15.050103 0 2 tcp 1000 ------- 1 0.0 4.0 27 65
+ 15.050103 2 3 tcp 1000 ------- 1 0.0 4.0 27 65
r 15.050109 0 2 tcp 1000 ------- 1 0.0 4.0 28 66
+ 15.050109 2 3 tcp 1000 ------- 1 0.0 4.0 28 66
- 15.050109 2 3 tcp 1000 ------- 1 0.0 4.0 24 62
r 15.050111 0 2 tcp 1000 ------- 1 0.0 4.0 29 67
+ 15.050111 2 3 tcp 1000 ------- 1 0.0 4.0 29 67
r 15.050117 0 2 tcp 1000 ------- 1 0.0 4.0 30 68
+ 15.050117 2 3 tcp 1000 ------- 1 0.0 4.0 30 68
- 15.050117 2 3 tcp 1000 ------- 1 0.0 4.0 25 63
r 15.050119 0 2 tcp 1000 ------- 1 0.0 4.0 31 69
+ 15.050119 2 3 tcp 1000 ------- 1 0.0 4.0 31 69