V -t * -v 1.0a5 -a 0
A -t * -n 1 -p 0 -o 0x7fffffff -c 30 -a 1
A -t * -h 1 -m 1073741823 -s 0
c -t * -i 1 -n Blue
c -t * -i 2 -n Red
n -t * -a 4 -s 4 -S UP -v circle -c black -i black
n -t * -a 0 -s 0 -S UP -v circle -c black -i black
n -t * -a 5 -s 5 -S UP -v circle -c black -i black
n -t * -a 1 -s 1 -S UP -v circle -c black -i black
n -t * -a 2 -s 2 -S UP -v circle -c black -i black
n -t * -a 3 -s 3 -S UP -v circle -c black -i black
l -t * -s 0 -d 2 -S UP -r 4000000000 -D 0.56699999999999995 -c black -o right-down
l -t * -s 1 -d 2 -S UP -r 4000000000 -D 0.84500000000000008 -c black -o right-up
l -t * -s 2 -d 3 -S UP -r 1000000000 -D 0.050000000000000003 -c black -o right
l -t * -s 3 -d 4 -S UP -r 4000000000 -D 0.56699999999999995 -c black -o right-up
l -t * -s 3 -d 5 -S UP -r 4000000000 -D 0.84500000000000008 -c black -o right-down
+ -t 0 -s 1 -d 2 -p tcp -e 1000 -c 2 -i 0 -a 2 -x {1.0 5.0 0 ------- null}
- -t 0 -s 1 -d 2 -p tcp -e 1000 -c 2 -i 0 -a 2 -x {1.0 5.0 0 ------- null}
h -t 0 -s 1 -d 2 -p tcp -e 1000 -c 2 -i 0 -a 2 -x {1.0 5.0 -1 ------- null}
+ -t 0 -s 0 -d 2 -p tcp -e 1000 -c 1 -i 1 -a 1 -x {0.0 4.0 0 ------- null}
- -t 0 -s 0 -d 2 -p tcp -e 1000 -c 1 -i 1 -a 1 -x {0.0 4.0 0 ------- null}
h -t 0 -s 0 -d 2 -p tcp -e 1000 -c 1 -i 1 -a 1 -x {0.0 4.0 -1 ------- null}
r -t 0.567002 -s 0 -d 2 -p tcp -e 1000 -c 1 -i 1 -a 1 -x {0.0 4.0 0 ------- null}
+ -t 0.567002 -s 2 -d 3 -p tcp -e 1000 -c 1 -i 1 -a 1 -x {0.0 4.0 0 ------- null}
- -t 0.567002 -s 2 -d 3 -p tcp -e 1000 -c 1 -i 1 -a 1 -x {0.0 4.0 0 ------- null}
h -t 0.567002 -s 2 -d 3 -p tcp -e 1000 -c 1 -i 1 -a 1 -x {0.0 4.0 -1 ------- null}
r -t 0.61701 -s 2 -d 3 -p tcp -e 1000 -c 1 -i 1 -a 1 -x {0.0 4.0 0 ------- null}
+ -t 0.61701 -s 3 -d 4 -p tcp -e 1000 -c 1 -i 1 -a 1 -x {0.0 4.0 0 ------- null}
- -t 0.61701 -s 3 -d 4 -p tcp -e 1000 -c 1 -i 1 -a 1 -x {0.0 4.0 0 ------- null}
h -t 0.61701 -s 3 -d 4 -p tcp -e 1000 -c 1 -i 1 -a 1 -x {0.0 4.0 -1 ------- null}
r -t 0.845002 -s 1 -d 2 -p tcp -e 1000 -c 2 -i 0 -a 2 -x {1.0 5.0 0 ------- null}
+ -t 0.845002 -s 2 -d 3 -p tcp -e 1000 -c 2 -i 0 -a 2 -x {1.0 5.0 0 ------- null}
- -t 0.845002 -s 2 -d 3 -p tcp -e 1000 -c 2 -i 0 -a 2 -x {1.0 5.0 0 ------- null}
h -t 0.845002 -s 2 -d 3 -p tcp -e 1000 -c 2 -i 0 -a 2 -x {1.0 5.0 -1 ------- null}
r -t 0.89501 -s 2 -d 3 -p tcp -e 1000 -c 2 -i 0 -a 2 -x {1.0 5.0 0 ------- null}
+ -t 0.89501 -s 3 -d 5 -p tcp -e 1000 -c 2 -i 0 -a 2 -x {1.0 5.0 0 ------- null}
- -t 0.89501 -s 3 -d 5 -p tcp -e 1000 -c 2 -i 0 -a 2 -x {1.0 5.0 0 ------- null}
h -t 0.89501 -s 3 -d 5 -p tcp -e 1000 -c 2 -i 0 -a 2 -x {1.0 5.0 -1 ------- null}
r -t 1.184012 -s 3 -d 4 -p tcp -e 1000 -c 1 -i 1 -a 1 -x {0.0 4.0 0 ------- null}
+ -t 1.184012 -s 4 -d 3 -p ack -e 40 -c 1 -i 2 -a 1 -x {4.0 0.0 0 ------- null}
- -t 1.184012 -s 4 -d 3 -p ack -e 40 -c 1 -i 2 -a 1 -x {4.0 0.0 0 ------- null}
h -t 1.184012 -s 4 -d 3 -p ack -e 40 -c 1 -i 2 -a 1 -x {4.0 0.0 -1 ------- null}
r -t 1.740012 -s 3 -d 5 -p tcp -e 1000 -c 2 -i 0 -a 2 -x {1.0 5.0 0 ------- null}
+ -t 1.740012 -s 5 -d 3 -p ack -e 40 -c 2 -i 3 -a 2 -x {5.0 1.0 0 ------- null}
- -t 1.740012 -s 5 -d 3 -p ack -e 40 -c 2 -i 3 -a 2 -x {5.0 1.0 0 ------- null}
h -t 1.740012 -s 5 -d 3 -p ack -e 40 -c 2 -i 3 -a 2 -x {5.0 1.0 -1 ------- null}
r -t 1.75101208 -s 4 -d 3 -p ack -e 40 -c 1 -i 2 -a 1 -x {4.0 0.0 0 ------- null}
+ -t 1.75101208 -s 3 -d 2 -p ack -e 40 -c 1 -i 2 -a 1 -x {4.0 0.0 0 ------- null}
- -t 1.75101208 -s 3 -d 2 -p ack -e 40 -c 1 -i 2 -a 1 -x {4.0 0.0 0 ------- null}
h -t 1.75101208 -s 3 -d 2 -p ack -e 40 -c 1 -i 2 -a 1 -x {4.0 0.0 -1 ------- null}
r -t 1.8010124 -s 3 -d 2 -p ack -e 40 -c 1 -i 2 -a 1 -x {4.0 0.0 0 ------- null}
+ -t 1.8010124 -s 2 -d 0 -p ack -e 40 -c 1 -i 2 -a 1 -x {4.0 0.0 0 ------- null}
- -t 1.8010124 -s 2 -d 0 -p ack -e 40 -c 1 -i 2 -a 1 -x {4.0 0.0 0 ------- null}
h -t 1.8010124 -s 2 -d 0 -p ack -e 40 -c 1 -i 2 -a 1 -x {4.0 0.0 -1 ------- null}
r -t 2.36801248 -s 2 -d 0 -p ack -e 40 -c 1 -i 2 -a 1 -x {4.0 0.0 0 ------- null}
+ -t 2.36801248 -s 0 -d 2 -p tcp -e 1000 -c 1 -i 4 -a 1 -x {0.0 4.0 1 ------- null}
- -t 2.36801248 -s 0 -d 2 -p tcp -e 1000 -c 1 -i 4 -a 1 -x {0.0 4.0 1 ------- null}
h -t 2.36801248 -s 0 -d 2 -p tcp -e 1000 -c 1 -i 4 -a 1 -x {0.0 4.0 -1 ------- null}
r -t 2.58501208 -s 5 -d 3 -p ack -e 40 -c 2 -i 3 -a 2 -x {5.0 1.0 0 ------- null}
+ -t 2.58501208 -s 3 -d 2 -p ack -e 40 -c 2 -i 3 -a 2 -x {5.0 1.0 0 ------- null}
- -t 2.58501208 -s 3 -d 2 -p ack -e 40 -c 2 -i 3 -a 2 -x {5.0 1.0 0 ------- null}
h -t 2.58501208 -s 3 -d 2 -p ack -e 40 -c 2 -i 3 -a 2 -x {5.0 1.0 -1 ------- null}
r -t 2.6350124 -s 3 -d 2 -p ack -e 40 -c 2 -i 3 -a 2 -x {5.0 1.0 0 ------- null}
+ -t 2.6350124 -s 2 -d 1 -p ack -e 40 -c 2 -i 3 -a 2 -x {5.0 1.0 0 ------- null}
- -t 2.6350124 -s 2 -d 1 -p ack -e 40 -c 2 -i 3 -a 2 -x {5.0 1.0 0 ------- null}
h -t 2.6350124 -s 2 -d 1 -p ack -e 40 -c 2 -i 3 -a 2 -x {5.0 1.0 -1 ------- null}
r -t 2.93501448 -s 0 -d 2 -p tcp -e 1000 -c 1 -i 4 -a 1 -x {0.0 4.0 1 ------- null}
+ -t 2.93501448 -s 2 -d 3 -p tcp -e 1000 -c 1 -i 4 -a 1 -x {0.0 4.0 1 ------- null}
- -t 2.93501448 -s 2 -d 3 -p tcp -e 1000 -c 1 -i 4 -a 1 -x {0.0 4.0 1 ------- null}
h -t 2.93501448 -s 2 -d 3 -p tcp -e 1000 -c 1 -i 4 -a 1 -x {0.0 4.0 -1 ------- null}
r -t 2.98502248 -s 2 -d 3 -p tcp -e 1000 -c 1 -i 4 -a 1 -x {0.0 4.0 1 ------- null}
+ -t 2.98502248 -s 3 -d 4 -p tcp -e 1000 -c 1 -i 4 -a 1 -x {0.0 4.0 1 ------- null}
- -t 2.98502248 -s 3 -d 4 -p tcp -e 1000 -c 1 -i 4 -a 1 -x {0.0 4.0 1 ------- null}
h -t 2.98502248 -s 3 -d 4 -p tcp -e 1000 -c 1 -i 4 -a 1 -x {0.0 4.0 -1 ------- null}
+ -t 3 -s 1 -d 2 -p tcp -e 1000 -c 2 -i 5 -a 2 -x {1.0 5.0 0 ------- null}
- -t 3 -s 1 -d 2 -p tcp -e 1000 -c 2 -i 5 -a 2 -x {1.0 5.0 0 ------- null}
h -t 3 -s 1 -d 2 -p tcp -e 1000 -c 2 -i 5 -a 2 -x {1.0 5.0 -1 ------- null}
+ -t 3 -s 1 -d 2 -p tcp -e 1000 -c 2 -i 6 -a 2 -x {1.0 5.0 1 ------- null}
- -t 3.000002 -s 1 -d 2 -p tcp -e 1000 -c 2 -i 6 -a 2 -x {1.0 5.0 1 ------- null}
h -t 3.000002 -s 1 -d 2 -p tcp -e 1000 -c 2 -i 6 -a 2 -x {1.0 5.0 -1 ------- null}
r -t 3.48001248 -s 2 -d 1 -p ack -e 40 -c 2 -i 3 -a 2 -x {5.0 1.0 0 ------- null}
+ -t 3.48001248 -s 1 -d 2 -p tcp -e 1000 -c 2 -i 7 -a 2 -x {1.0 5.0 2 ------- null}
- -t 3.48001248 -s 1 -d 2 -p tcp -e 1000 -c 2 -i 7 -a 2 -x {1.0 5.0 2 ------- null}
h -t 3.48001248 -s 1 -d 2 -p tcp -e 1000 -c 2 -i 7 -a 2 -x {1.0 5.0 -1 ------- null}
r -t 3.55202448 -s 3 -d 4 -p tcp -e 1000 -c 1 -i 4 -a 1 -x {0.0 4.0 1 ------- null}
+ -t 3.55202448 -s 4 -d 3 -p ack -e 40 -c 1 -i 8 -a 1 -x {4.0 0.0 1 ------- null}
- -t 3.55202448 -s 4 -d 3 -p ack -e 40 -c 1 -i 8 -a 1 -x {4.0 0.0 1 ------- null}
h -t 3.55202448 -s 4 -d 3 -p ack -e 40 -c 1 -i 8 -a 1 -x {4.0 0.0 -1 ------- null}
r -t 3.845002 -s 1 -d 2 -p tcp -e 1000 -c 2 -i 5 -a 2 -x {1.0 5.0 0 ------- null}
+ -t 3.845002 -s 2 -d 3 -p tcp -e 1000 -c 2 -i 5 -a 2 -x {1.0 5.0 0 ------- null}
- -t 3.845002 -s 2 -d 3 -p tcp -e 1000 -c 2 -i 5 -a 2 -x {1.0 5.0 0 ------- null}
h -t 3.845002 -s 2 -d 3 -p tcp -e 1000 -c 2 -i 5 -a 2 -x {1.0 5.0 -1 ------- null}
r -t 3.845004 -s 1 -d 2 -p tcp -e 1000 -c 2 -i 6 -a 2 -x {1.0 5.0 1 ------- null}
+ -t 3.845004 -s 2 -d 3 -p tcp -e 1000 -c 2 -i 6 -a 2 -x {1.0 5.0 1 ------- null}
- -t 3.84501 -s 2 -d 3 -p tcp -e 1000 -c 2 -i 6 -a 2 -x {1.0 5.0 1 ------- null}
h -t 3.84501 -s 2 -d 3 -p tcp -e 1000 -c 2 -i 6 -a 2 -x {1.0 5.0 -1 ------- null}
r -t 3.89501 -s 2 -d 3 -p tcp -e 1000 -c 2 -i 5 -a 2 -x {1.0 5.0 0 ------- null}
+ -t 3.89501 -s 3 -d 5 -p tcp -e 1000 -c 2 -i 5 -a 2 -x {1.0 5.0 0 ------- null}
- -t 3.89501 -s 3 -d 5 -p tcp -e 1000 -c 2 -i 5 -a 2 -x {1.0 5.0 0 ------- null}
h -t 3.89501 -s 3 -d 5 -p tcp -e 1000 -c 2 -i 5 -a 2 -x {1.0 5.0 -1 ------- null}
r -t 3.895018 -s 2 -d 3 -p tcp -e 1000 -c 2 -i 6 -a 2 -x {1.0 5.0 1 ------- null}
+ -t 3.895018 -s 3 -d 5 -p tcp -e 1000 -c 2 -i 6 -a 2 -x {1.0 5.0 1 ------- null}
- -t 3.895018 -s 3 -d 5 -p tcp -e 1000 -c 2 -i 6 -a 2 -x {1.0 5.0 1 ------- null}
h -t 3.895018 -s 3 -d 5 -p tcp -e 1000 -c 2 -i 6 -a 2 -x {1.0 5.0 -1 ------- null}
r -t 4.11902456 -s 4 -d 3 -p ack -e 40 -c 1 -i 8 -a 1 -x {4.0 0.0 1 ------- null}
+ -t 4.11902456 -s 3 -d 2 -p ack -e 40 -c 1 -i 8 -a 1 -x {4.0 0.0 1 ------- null}
- -t 4.11902456 -s 3 -d 2 -p ack -e 40 -c 1 -i 8 -a 1 -x {4.0 0.0 1 ------- null}
h -t 4.11902456 -s 3 -d 2 -p ack -e 40 -c 1 -i 8 -a 1 -x {4.0 0.0 -1 ------- null}
r -t 4.16902488 -s 3 -d 2 -p ack -e 40 -c 1 -i 8 -a 1 -x {4.0 0.0 1 ------- null}
+ -t 4.16902488 -s 2 -d 0 -p ack -e 40 -c 1 -i 8 -a 1 -x {4.0 0.0 1 ------- null}
- -t 4.16902488 -s 2 -d 0 -p ack -e 40 -c 1 -i 8 -a 1 -x {4.0 0.0 1 ------- null}
h -t 4.16902488 -s 2 -d 0 -p ack -e 40 -c 1 -i 8 -a 1 -x {4.0 0.0 -1 ------- null}
r -t 4.32501448 -s 1 -d 2 -p tcp -e 1000 -c 2 -i 7 -a 2 -x {1.0 5.0 2 ------- null}
+ -t 4.32501448 -s 2 -d 3 -p tcp -e 1000 -c 2 -i 7 -a 2 -x {1.0 5.0 2 ------- null}
- -t 4.32501448 -s 2 -d 3 -p tcp -e 1000 -c 2 -i 7 -a 2 -x {1.0 5.0 2 ------- null}
h -t 4.32501448 -s 2 -d 3 -p tcp -e 1000 -c 2 -i 7 -a 2 -x {1.0 5.0 -1 ------- null}
r -t 4.37502248 -s 2 -d 3 -p tcp -e 1000 -c 2 -i 7 -a 2 -x {1.0 5.0 2 ------- null}
+ -t 4.37502248 -s 3 -d 5 -p tcp -e 1000 -c 2 -i 7 -a 2 -x {1.0 5.0 2 ------- null}
- -t 4.37502248 -s 3 -d 5 -p tcp -e 1000 -c 2 -i 7 -a 2 -x {1.0 5.0 2 ------- null}
h -t 4.37502248 -s 3 -d 5 -p tcp -e 1000 -c 2 -i 7 -a 2 -x {1.0 5.0 -1 ------- null}
r -t 4.73602496 -s 2 -d 0 -p ack -e 40 -c 1 -i 8 -a 1 -x {4.0 0.0 1 ------- null}
+ -t 4.73602496 -s 0 -d 2 -p tcp -e 1000 -c 1 -i 9 -a 1 -x {0.0 4.0 2 ------- null}
- -t 4.73602496 -s 0 -d 2 -p tcp -e 1000 -c 1 -i 9 -a 1 -x {0.0 4.0 2 ------- null}
h -t 4.73602496 -s 0 -d 2 -p tcp -e 1000 -c 1 -i 9 -a 1 -x {0.0 4.0 -1 ------- null}
+ -t 4.73602496 -s 0 -d 2 -p tcp -e 1000 -c 1 -i 10 -a 1 -x {0.0 4.0 3 ------- null}
+ -t 4.73602496 -s 0 -d 2 -p tcp -e 1000 -c 1 -i 11 -a 1 -x {0.0 4.0 4 ------- null}
- -t 4.73602696 -s 0 -d 2 -p tcp -e 1000 -c 1 -i 10 -a 1 -x {0.0 4.0 3 ------- null}
h -t 4.73602696 -s 0 -d 2 -p tcp -e 1000 -c 1 -i 10 -a 1 -x {0.0 4.0 -1 ------- null}
- -t 4.73602896 -s 0 -d 2 -p tcp -e 1000 -c 1 -i 11 -a 1 -x {0.0 4.0 4 ------- null}
h -t 4.73602896 -s 0 -d 2 -p tcp -e 1000 -c 1 -i 11 -a 1 -x {0.0 4.0 -1 ------- null}
r -t 4.740012 -s 3 -d 5 -p tcp -e 1000 -c 2 -i 5 -a 2 -x {1.0 5.0 0 ------- null}
+ -t 4.740012 -s 5 -d 3 -p ack -e 40 -c 2 -i 12 -a 2 -x {5.0 1.0 0 ------- null}
- -t 4.740012 -s 5 -d 3 -p ack -e 40 -c 2 -i 12 -a 2 -x {5.0 1.0 0 ------- null}
h -t 4.740012 -s 5 -d 3 -p ack -e 40 -c 2 -i 12 -a 2 -x {5.0 1.0 -1 ------- null}
r -t 4.74002 -s 3 -d 5 -p tcp -e 1000 -c 2 -i 6 -a 2 -x {1.0 5.0 1 ------- null}
+ -t 4.74002 -s 5 -d 3 -p ack -e 40 -c 2 -i 13 -a 2 -x {5.0 1.0 1 ------- null}
- -t 4.74002 -s 5 -d 3 -p ack -e 40 -c 2 -i 13 -a 2 -x {5.0 1.0 1 ------- null}
h -t 4.74002 -s 5 -d 3 -p ack -e 40 -c 2 -i 13 -a 2 -x {5.0 1.0 -1 ------- null}
r -t 5.22002448 -s 3 -d 5 -p tcp -e 1000 -c 2 -i 7 -a 2 -x {1.0 5.0 2 ------- null}
+ -t 5.22002448 -s 5 -d 3 -p ack -e 40 -c 2 -i 14 -a 2 -x {5.0 1.0 2 ------- null}
- -t 5.22002448 -s 5 -d 3 -p ack -e 40 -c 2 -i 14 -a 2 -x {5.0 1.0 2 ------- null}
h -t 5.22002448 -s 5 -d 3 -p ack -e 40 -c 2 -i 14 -a 2 -x {5.0 1.0 -1 ------- null}
r -t 5.30302696 -s 0 -d 2 -p tcp -e 1000 -c 1 -i 9 -a 1 -x {0.0 4.0 2 ------- null}
+ -t 5.30302696 -s 2 -d 3 -p tcp -e 1000 -c 1 -i 9 -a 1 -x {0.0 4.0 2 ------- null}
- -t 5.30302696 -s 2 -d 3 -p tcp -e 1000 -c 1 -i 9 -a 1 -x {0.0 4.0 2 ------- null}
h -t 5.30302696 -s 2 -d 3 -p tcp -e 1000 -c 1 -i 9 -a 1 -x {0.0 4.0 -1 ------- null}
r -t 5.30302896 -s 0 -d 2 -p tcp -e 1000 -c 1 -i 10 -a 1 -x {0.0 4.0 3 ------- null}
+ -t 5.30302896 -s 2 -d 3 -p tcp -e 1000 -c 1 -i 10 -a 1 -x {0.0 4.0 3 ------- null}
r -t 5.30303096 -s 0 -d 2 -p tcp -e 1000 -c 1 -i 11 -a 1 -x {0.0 4.0 4 ------- null}
+ -t 5.30303096 -s 2 -d 3 -p tcp -e 1000 -c 1 -i 11 -a 1 -x {0.0 4.0 4 ------- null}
- -t 5.30303496 -s 2 -d 3 -p tcp -e 1000 -c 1 -i 10 -a 1 -x {0.0 4.0 3 ------- null}
h -t 5.30303496 -s 2 -d 3 -p tcp -e 1000 -c 1 -i 10 -a 1 -x {0.0 4.0 -1 ------- null}
- -t 5.30304296 -s 2 -d 3 -p tcp -e 1000 -c 1 -i 11 -a 1 -x {0.0 4.0 4 ------- null}
h -t 5.30304296 -s 2 -d 3 -p tcp -e 1000 -c 1 -i 11 -a 1 -x {0.0 4.0 -1 ------- null}
r -t 5.35303496 -s 2 -d 3 -p tcp -e 1000 -c 1 -i 9 -a 1 -x {0.0 4.0 2 ------- null}
+ -t 5.35303496 -s 3 -d 4 -p tcp -e 1000 -c 1 -i 9 -a 1 -x {0.0 4.0 2 ------- null}
- -t 5.35303496 -s 3 -d 4 -p tcp -e 1000 -c 1 -i 9 -a 1 -x {0.0 4.0 2 ------- null}
h -t 5.35303496 -s 3 -d 4 -p tcp -e 1000 -c 1 -i 9 -a 1 -x {0.0 4.0 -1 ------- null}
r -t 5.35304296 -s 2 -d 3 -p tcp -e 1000 -c 1 -i 10 -a 1 -x {0.0 4.0 3 ------- null}
+ -t 5.35304296 -s 3 -d 4 -p tcp -e 1000 -c 1 -i 10 -a 1 -x {0.0 4.0 3 ------- null}
- -t 5.35304296 -s 3 -d 4 -p tcp -e 1000 -c 1 -i 10 -a 1 -x {0.0 4.0 3 ------- null}
h -t 5.35304296 -s 3 -d 4 -p tcp -e 1000 -c 1 -i 10 -a 1 -x {0.0 4.0 -1 ------- null}
r -t 5.35305096 -s 2 -d 3 -p tcp -e 1000 -c 1 -i 11 -a 1 -x {0.0 4.0 4 ------- null}
+ -t 5.35305096 -s 3 -d 4 -p tcp -e 1000 -c 1 -i 11 -a 1 -x {0.0 4.0 4 ------- null}
- -t 5.35305096 -s 3 -d 4 -p tcp -e 1000 -c 1 -i 11 -a 1 -x {0.0 4.0 4 ------- null}
h -t 5.35305096 -s 3 -d 4 -p tcp -e 1000 -c 1 -i 11 -a 1 -x {0.0 4.0 -1 ------- null}
r -t 5.58501208 -s 5 -d 3 -p ack -e 40 -c 2 -i 12 -a 2 -x {5.0 1.0 0 ------- null}
+ -t 5.58501208 -s 3 -d 2 -p ack -e 40 -c 2 -i 12 -a 2 -x {5.0 1.0 0 ------- null}
- -t 5.58501208 -s 3 -d 2 -p ack -e 40 -c 2 -i 12 -a 2 -x {5.0 1.0 0 ------- null}
h -t 5.58501208 -s 3 -d 2 -p ack -e 40 -c 2 -i 12 -a 2 -x {5.0 1.0 -1 ------- null}
r -t 5.58502008 -s 5 -d 3 -p ack -e 40 -c 2 -i 13 -a 2 -x {5.0 1.0 1 ------- null}
+ -t 5.58502008 -s 3 -d 2 -p ack -e 40 -c 2 -i 13 -a 2 -x {5.0 1.0 1 ------- null}
- -t 5.58502008 -s 3 -d 2 -p ack -e 40 -c 2 -i 13 -a 2 -x {5.0 1.0 1 ------- null}
h -t 5.58502008 -s 3 -d 2 -p ack -e 40 -c 2 -i 13 -a 2 -x {5.0 1.0 -1 ------- null}
r -t 5.6350124 -s 3 -d 2 -p ack -e 40 -c 2 -i 12 -a 2 -x {5.0 1.0 0 ------- null}
+ -t 5.6350124 -s 2 -d 1 -p ack -e 40 -c 2 -i 12 -a 2 -x {5.0 1.0 0 ------- null}
- -t 5.6350124 -s 2 -d 1 -p ack -e 40 -c 2 -i 12 -a 2 -x {5.0 1.0 0 ------- null}
h -t 5.6350124 -s 2 -d 1 -p ack -e 40 -c 2 -i 12 -a 2 -x {5.0 1.0 -1 ------- null}
r -t 5.6350204 -s 3 -d 2 -p ack -e 40 -c 2 -i 13 -a 2 -x {5.0 1.0 1 ------- null}
+ -t 5.6350204 -s 2 -d 1 -p ack -e 40 -c 2 -i 13 -a 2 -x {5.0 1.0 1 ------- null}
- -t 5.6350204 -s 2 -d 1 -p ack -e 40 -c 2 -i 13 -a 2 -x {5.0 1.0 1 ------- null}
h -t 5.6350204 -s 2 -d 1 -p ack -e 40 -c 2 -i 13 -a 2 -x {5.0 1.0 -1 ------- null}
r -t 5.92003696 -s 3 -d 4 -p tcp -e 1000 -c 1 -i 9 -a 1 -x {0.0 4.0 2 ------- null}
+ -t 5.92003696 -s 4 -d 3 -p ack -e 40 -c 1 -i 15 -a 1 -x {4.0 0.0 2 ------- null}
- -t 5.92003696 -s 4 -d 3 -p ack -e 40 -c 1 -i 15 -a 1 -x {4.0 0.0 2 ------- null}
h -t 5.92003696 -s 4 -d 3 -p ack -e 40 -c 1 -i 15 -a 1 -x {4.0 0.0 -1 ------- null}
r -t 5.92004496 -s 3 -d 4 -p tcp -e 1000 -c 1 -i 10 -a 1 -x {0.0 4.0 3 ------- null}
+ -t 5.92004496 -s 4 -d 3 -p ack -e 40 -c 1 -i 16 -a 1 -x {4.0 0.0 3 ------- null}
- -t 5.92004496 -s 4 -d 3 -p ack -e 40 -c 1 -i 16 -a 1 -x {4.0 0.0 3 ------- null}
h -t 5.92004496 -s 4 -d 3 -p ack -e 40 -c 1 -i 16 -a 1 -x {4.0 0.0 -1 ------- null}
r -t 5.92005296 -s 3 -d 4 -p tcp -e 1000 -c 1 -i 11 -a 1 -x {0.0 4.0 4 ------- null}
+ -t 5.92005296 -s 4 -d 3 -p ack -e 40 -c 1 -i 17 -a 1 -x {4.0 0.0 4 ------- null}
- -t 5.92005296 -s 4 -d 3 -p ack -e 40 -c 1 -i 17 -a 1 -x {4.0 0.0 4 ------- null}
h -t 5.92005296 -s 4 -d 3 -p ack -e 40 -c 1 -i 17 -a 1 -x {4.0 0.0 -1 ------- null}
r -t 6.06502456 -s 5 -d 3 -p ack -e 40 -c 2 -i 14 -a 2 -x {5.0 1.0 2 ------- null}
+ -t 6.06502456 -s 3 -d 2 -p ack -e 40 -c 2 -i 14 -a 2 -x {5.0 1.0 2 ------- null}
- -t 6.06502456 -s 3 -d 2 -p ack -e 40 -c 2 -i 14 -a 2 -x {5.0 1.0 2 ------- null}
h -t 6.06502456 -s 3 -d 2 -p ack -e 40 -c 2 -i 14 -a 2 -x {5.0 1.0 -1 ------- null}
r -t 6.11502488 -s 3 -d 2 -p ack -e 40 -c 2 -i 14 -a 2 -x {5.0 1.0 2 ------- null}
+ -t 6.11502488 -s 2 -d 1 -p ack -e 40 -c 2 -i 14 -a 2 -x {5.0 1.0 2 ------- null}
- -t 6.11502488 -s 2 -d 1 -p ack -e 40 -c 2 -i 14 -a 2 -x {5.0 1.0 2 ------- null}
h -t 6.11502488 -s 2 -d 1 -p ack -e 40 -c 2 -i 14 -a 2 -x {5.0 1.0 -1 ------- null}
r -t 6.48001248 -s 2 -d 1 -p ack -e 40 -c 2 -i 12 -a 2 -x {5.0 1.0 0 ------- null}
r -t 6.48002048 -s 2 -d 1 -p ack -e 40 -c 2 -i 13 -a 2 -x {5.0 1.0 1 ------- null}
+ -t 6.48002048 -s 1 -d 2 -p tcp -e 1000 -c 2 -i 18 -a 2 -x {1.0 5.0 3 ------- null}
- -t 6.48002048 -s 1 -d 2 -p tcp -e 1000 -c 2 -i 18 -a 2 -x {1.0 5.0 3 ------- null}
h -t 6.48002048 -s 1 -d 2 -p tcp -e 1000 -c 2 -i 18 -a 2 -x {1.0 5.0 -1 ------- null}
r -t 6.48703704 -s 4 -d 3 -p ack -e 40 -c 1 -i 15 -a 1 -x {4.0 0.0 2 ------- null}
+ -t 6.48703704 -s 3 -d 2 -p ack -e 40 -c 1 -i 15 -a 1 -x {4.0 0.0 2 ------- null}
- -t 6.48703704 -s 3 -d 2 -p ack -e 40 -c 1 -i 15 -a 1 -x {4.0 0.0 2 ------- null}
h -t 6.48703704 -s 3 -d 2 -p ack -e 40 -c 1 -i 15 -a 1 -x {4.0 0.0 -1 ------- null}
r -t 6.48704504 -s 4 -d 3 -p ack -e 40 -c 1 -i 16 -a 1 -x {4.0 0.0 3 ------- null}
+ -t 6.48704504 -s 3 -d 2 -p ack -e 40 -c 1 -i 16 -a 1 -x {4.0 0.0 3 ------- null}
- -t 6.48704504 -s 3 -d 2 -p ack -e 40 -c 1 -i 16 -a 1 -x {4.0 0.0 3 ------- null}
h -t 6.48704504 -s 3 -d 2 -p ack -e 40 -c 1 -i 16 -a 1 -x {4.0 0.0 -1 ------- null}
r -t 6.48705304 -s 4 -d 3 -p ack -e 40 -c 1 -i 17 -a 1 -x {4.0 0.0 4 ------- null}
+ -t 6.48705304 -s 3 -d 2 -p ack -e 40 -c 1 -i 17 -a 1 -x {4.0 0.0 4 ------- null}
- -t 6.48705304 -s 3 -d 2 -p ack -e 40 -c 1 -i 17 -a 1 -x {4.0 0.0 4 ------- null}
h -t 6.48705304 -s 3 -d 2 -p ack -e 40 -c 1 -i 17 -a 1 -x {4.0 0.0 -1 ------- null}
r -t 6.53703736 -s 3 -d 2 -p ack -e 40 -c 1 -i 15 -a 1 -x {4.0 0.0 2 ------- null}
+ -t 6.53703736 -s 2 -d 0 -p ack -e 40 -c 1 -i 15 -a 1 -x {4.0 0.0 2 ------- null}
- -t 6.53703736 -s 2 -d 0 -p ack -e 40 -c 1 -i 15 -a 1 -x {4.0 0.0 2 ------- null}
h -t 6.53703736 -s 2 -d 0 -p ack -e 40 -c 1 -i 15 -a 1 -x {4.0 0.0 -1 ------- null}
r -t 6.53704536 -s 3 -d 2 -p ack -e 40 -c 1 -i 16 -a 1 -x {4.0 0.0 3 ------- null}
+ -t 6.53704536 -s 2 -d 0 -p ack -e 40 -c 1 -i 16 -a 1 -x {4.0 0.0 3 ------- null}
- -t 6.53704536 -s 2 -d 0 -p ack -e 40 -c 1 -i 16 -a 1 -x {4.0 0.0 3 ------- null}
h -t 6.53704536 -s 2 -d 0 -p ack -e 40 -c 1 -i 16 -a 1 -x {4.0 0.0 -1 ------- null}
r -t 6.53705336 -s 3 -d 2 -p ack -e 40 -c 1 -i 17 -a 1 -x {4.0 0.0 4 ------- null}
+ -t 6.53705336 -s 2 -d 0 -p ack -e 40 -c 1 -i 17 -a 1 -x {4.0 0.0 4 ------- null}
- -t 6.53705336 -s 2 -d 0 -p ack -e 40 -c 1 -i 17 -a 1 -x {4.0 0.0 4 ------- null}
h -t 6.53705336 -s 2 -d 0 -p ack -e 40 -c 1 -i 17 -a 1 -x {4.0 0.0 -1 ------- null}
r -t 6.96002496 -s 2 -d 1 -p ack -e 40 -c 2 -i 14 -a 2 -x {5.0 1.0 2 ------- null}
+ -t 6.96002496 -s 1 -d 2 -p tcp -e 1000 -c 2 -i 19 -a 2 -x {1.0 5.0 4 ------- null}
- -t 6.96002496 -s 1 -d 2 -p tcp -e 1000 -c 2 -i 19 -a 2 -x {1.0 5.0 4 ------- null}
h -t 6.96002496 -s 1 -d 2 -p tcp -e 1000 -c 2 -i 19 -a 2 -x {1.0 5.0 -1 ------- null}
r -t 7.10403744 -s 2 -d 0 -p ack -e 40 -c 1 -i 15 -a 1 -x {4.0 0.0 2 ------- null}
+ -t 7.10403744 -s 0 -d 2 -p tcp -e 1000 -c 1 -i 20 -a 1 -x {0.0 4.0 5 ------- null}
- -t 7.10403744 -s 0 -d 2 -p tcp -e 1000 -c 1 -i 20 -a 1 -x {0.0 4.0 5 ------- null}
h -t 7.10403744 -s 0 -d 2 -p tcp -e 1000 -c 1 -i 20 -a 1 -x {0.0 4.0 -1 ------- null}
r -t 7.10404544 -s 2 -d 0 -p ack -e 40 -c 1 -i 16 -a 1 -x {4.0 0.0 3 ------- null}
+ -t 7.10404544 -s 0 -d 2 -p tcp -e 1000 -c 1 -i 21 -a 1 -x {0.0 4.0 6 ------- null}
- -t 7.10404544 -s 0 -d 2 -p tcp -e 1000 -c 1 -i 21 -a 1 -x {0.0 4.0 6 ------- null}
h -t 7.10404544 -s 0 -d 2 -p tcp -e 1000 -c 1 -i 21 -a 1 -x {0.0 4.0 -1 ------- null}
r -t 7.10405344 -s 2 -d 0 -p ack -e 40 -c 1 -i 17 -a 1 -x {4.0 0.0 4 ------- null}
+ -t 7.10405344 -s 0 -d 2 -p tcp -e 1000 -c 1 -i 22 -a 1 -x {0.0 4.0 7 ------- null}
- -t 7.10405344 -s 0 -d 2 -p tcp -e 1000 -c 1 -i 22 -a 1 -x {0.0 4.0 7 ------- null}
h -t 7.10405344 -s 0 -d 2 -p tcp -e 1000 -c 1 -i 22 -a 1 -x {0.0 4.0 -1 ------- null}
r -t 7.32502248 -s 1 -d 2 -p tcp -e 1000 -c 2 -i 18 -a 2 -x {1.0 5.0 3 ------- null}
+ -t 7.32502248 -s 2 -d 3 -p tcp -e 1000 -c 2 -i 18 -a 2 -x {1.0 5.0 3 ------- null}
- -t 7.32502248 -s 2 -d 3 -p tcp -e 1000 -c 2 -i 18 -a 2 -x {1.0 5.0 3 ------- null}
h -t 7.32502248 -s 2 -d 3 -p tcp -e 1000 -c 2 -i 18 -a 2 -x {1.0 5.0 -1 ------- null}
r -t 7.37503048 -s 2 -d 3 -p tcp -e 1000 -c 2 -i 18 -a 2 -x {1.0 5.0 3 ------- null}
+ -t 7.37503048 -s 3 -d 5 -p tcp -e 1000 -c 2 -i 18 -a 2 -x {1.0 5.0 3 ------- null}
- -t 7.37503048 -s 3 -d 5 -p tcp -e 1000 -c 2 -i 18 -a 2 -x {1.0 5.0 3 ------- null}
h -t 7.37503048 -s 3 -d 5 -p tcp -e 1000 -c 2 -i 18 -a 2 -x {1.0 5.0 -1 ------- null}
r -t 7.67103944 -s 0 -d 2 -p tcp -e 1000 -c 1 -i 20 -a 1 -x {0.0 4.0 5 ------- null}
+ -t 7.67103944 -s 2 -d 3 -p tcp -e 1000 -c 1 -i 20 -a 1 -x {0.0 4.0 5 ------- null}
- -t 7.67103944 -s 2 -d 3 -p tcp -e 1000 -c 1 -i 20 -a 1 -x {0.0 4.0 5 ------- null}
h -t 7.67103944 -s 2 -d 3 -p tcp -e 1000 -c 1 -i 20 -a 1 -x {0.0 4.0 -1 ------- null}
r -t 7.67104744 -s 0 -d 2 -p tcp -e 1000 -c 1 -i 21 -a 1 -x {0.0 4.0 6 ------- null}
+ -t 7.67104744 -s 2 -d 3 -p tcp -e 1000 -c 1 -i 21 -a 1 -x {0.0 4.0 6 ------- null}
- -t 7.67104744 -s 2 -d 3 -p tcp -e 1000 -c 1 -i 21 -a 1 -x {0.0 4.0 6 ------- null}
h -t 7.67104744 -s 2 -d 3 -p tcp -e 1000 -c 1 -i 21 -a 1 -x {0.0 4.0 -1 ------- null}
r -t 7.67105544 -s 0 -d 2 -p tcp -e 1000 -c 1 -i 22 -a 1 -x {0.0 4.0 7 ------- null}
+ -t 7.67105544 -s 2 -d 3 -p tcp -e 1000 -c 1 -i 22 -a 1 -x {0.0 4.0 7 ------- null}
- -t 7.67105544 -s 2 -d 3 -p tcp -e 1000 -c 1 -i 22 -a 1 -x {0.0 4.0 7 ------- null}
h -t 7.67105544 -s 2 -d 3 -p tcp -e 1000 -c 1 -i 22 -a 1 -x {0.0 4.0 -1 ------- null}
r -t 7.72104744 -s 2 -d 3 -p tcp -e 1000 -c 1 -i 20 -a 1 -x {0.0 4.0 5 ------- null}
+ -t 7.72104744 -s 3 -d 4 -p tcp -e 1000 -c 1 -i 20 -a 1 -x {0.0 4.0 5 ------- null}
- -t 7.72104744 -s 3 -d 4 -p tcp -e 1000 -c 1 -i 20 -a 1 -x {0.0 4.0 5 ------- null}
h -t 7.72104744 -s 3 -d 4 -p tcp -e 1000 -c 1 -i 20 -a 1 -x {0.0 4.0 -1 ------- null}
r -t 7.72105544 -s 2 -d 3 -p tcp -e 1000 -c 1 -i 21 -a 1 -x {0.0 4.0 6 ------- null}
+ -t 7.72105544 -s 3 -d 4 -p tcp -e 1000 -c 1 -i 21 -a 1 -x {0.0 4.0 6 ------- null}
- -t 7.72105544 -s 3 -d 4 -p tcp -e 1000 -c 1 -i 21 -a 1 -x {0.0 4.0 6 ------- null}
h -t 7.72105544 -s 3 -d 4 -p tcp -e 1000 -c 1 -i 21 -a 1 -x {0.0 4.0 -1 ------- null}
r -t 7.72106344 -s 2 -d 3 -p tcp -e 1000 -c 1 -i 22 -a 1 -x {0.0 4.0 7 ------- null}
+ -t 7.72106344 -s 3 -d 4 -p tcp -e 1000 -c 1 -i 22 -a 1 -x {0.0 4.0 7 ------- null}
- -t 7.72106344 -s 3 -d 4 -p tcp -e 1000 -c 1 -i 22 -a 1 -x {0.0 4.0 7 ------- null}
h -t 7.72106344 -s 3 -d 4 -p tcp -e 1000 -c 1 -i 22 -a 1 -x {0.0 4.0 -1 ------- null}
r -t 7.80502696 -s 1 -d 2 -p tcp -e 1000 -c 2 -i 19 -a 2 -x {1.0 5.0 4 ------- null}
+ -t 7.80502696 -s 2 -d 3 -p tcp -e 1000 -c 2 -i 19 -a 2 -x {1.0 5.0 4 ------- null}
- -t 7.80502696 -s 2 -d 3 -p tcp -e 1000 -c 2 -i 19 -a 2 -x {1.0 5.0 4 ------- null}
h -t 7.80502696 -s 2 -d 3 -p tcp -e 1000 -c 2 -i 19 -a 2 -x {1.0 5.0 -1 ------- null}
r -t 7.85503496 -s 2 -d 3 -p tcp -e 1000 -c 2 -i 19 -a 2 -x {1.0 5.0 4 ------- null}
+ -t 7.85503496 -s 3 -d 5 -p tcp -e 1000 -c 2 -i 19 -a 2 -x {1.0 5.0 4 ------- null}
- -t 7.85503496 -s 3 -d 5 -p tcp -e 1000 -c 2 -i 19 -a 2 -x {1.0 5.0 4 ------- null}
h -t 7.85503496 -s 3 -d 5 -p tcp -e 1000 -c 2 -i 19 -a 2 -x {1.0 5.0 -1 ------- null}
r -t 8.22003248 -s 3 -d 5 -p tcp -e 1000 -c 2 -i 18 -a 2 -x {1.0 5.0 3 ------- null}
+ -t 8.22003248 -s 5 -d 3 -p ack -e 40 -c 2 -i 23 -a 2 -x {5.0 1.0 3 ------- null}
- -t 8.22003248 -s 5 -d 3 -p ack -e 40 -c 2 -i 23 -a 2 -x {5.0 1.0 3 ------- null}
h -t 8.22003248 -s 5 -d 3 -p ack -e 40 -c 2 -i 23 -a 2 -x {5.0 1.0 -1 ------- null}
r -t 8.28804944 -s 3 -d 4 -p tcp -e 1000 -c 1 -i 20 -a 1 -x {0.0 4.0 5 ------- null}
+ -t 8.28804944 -s 4 -d 3 -p ack -e 40 -c 1 -i 24 -a 1 -x {4.0 0.0 5 ------- null}
- -t 8.28804944 -s 4 -d 3 -p ack -e 40 -c 1 -i 24 -a 1 -x {4.0 0.0 5 ------- null}
h -t 8.28804944 -s 4 -d 3 -p ack -e 40 -c 1 -i 24 -a 1 -x {4.0 0.0 -1 ------- null}
r -t 8.28805744 -s 3 -d 4 -p tcp -e 1000 -c 1 -i 21 -a 1 -x {0.0 4.0 6 ------- null}
+ -t 8.28805744 -s 4 -d 3 -p ack -e 40 -c 1 -i 25 -a 1 -x {4.0 0.0 6 ------- null}
- -t 8.28805744 -s 4 -d 3 -p ack -e 40 -c 1 -i 25 -a 1 -x {4.0 0.0 6 ------- null}
h -t 8.28805744 -s 4 -d 3 -p ack -e 40 -c 1 -i 25 -a 1 -x {4.0 0.0 -1 ------- null}
r -t 8.28806544 -s 3 -d 4 -p tcp -e 1000 -c 1 -i 22 -a 1 -x {0.0 4.0 7 ------- null}
+ -t 8.28806544 -s 4 -d 3 -p ack -e 40 -c 1 -i 26 -a 1 -x {4.0 0.0 7 ------- null}
- -t 8.28806544 -s 4 -d 3 -p ack -e 40 -c 1 -i 26 -a 1 -x {4.0 0.0 7 ------- null}
h -t 8.28806544 -s 4 -d 3 -p ack -e 40 -c 1 -i 26 -a 1 -x {4.0 0.0 -1 ------- null}
r -t 8.70003696 -s 3 -d 5 -p tcp -e 1000 -c 2 -i 19 -a 2 -x {1.0 5.0 4 ------- null}
+ -t 8.70003696 -s 5 -d 3 -p ack -e 40 -c 2 -i 27 -a 2 -x {5.0 1.0 4 ------- null}
- -t 8.70003696 -s 5 -d 3 -p ack -e 40 -c 2 -i 27 -a 2 -x {5.0 1.0 4 ------- null}
h -t 8.70003696 -s 5 -d 3 -p ack -e 40 -c 2 -i 27 -a 2 -x {5.0 1.0 -1 ------- null}
r -t 8.85504952 -s 4 -d 3 -p ack -e 40 -c 1 -i 24 -a 1 -x {4.0 0.0 5 ------- null}
+ -t 8.85504952 -s 3 -d 2 -p ack -e 40 -c 1 -i 24 -a 1 -x {4.0 0.0 5 ------- null}
- -t 8.85504952 -s 3 -d 2 -p ack -e 40 -c 1 -i 24 -a 1 -x {4.0 0.0 5 ------- null}
h -t 8.85504952 -s 3 -d 2 -p ack -e 40 -c 1 -i 24 -a 1 -x {4.0 0.0 -1 ------- null}
r -t 8.85505752 -s 4 -d 3 -p ack -e 40 -c 1 -i 25 -a 1 -x {4.0 0.0 6 ------- null}
+ -t 8.85505752 -s 3 -d 2 -p ack -e 40 -c 1 -i 25 -a 1 -x {4.0 0.0 6 ------- null}
- -t 8.85505752 -s 3 -d 2 -p ack -e 40 -c 1 -i 25 -a 1 -x {4.0 0.0 6 ------- null}
h -t 8.85505752 -s 3 -d 2 -p ack -e 40 -c 1 -i 25 -a 1 -x {4.0 0.0 -1 ------- null}
r -t 8.85506552 -s 4 -d 3 -p ack -e 40 -c 1 -i 26 -a 1 -x {4.0 0.0 7 ------- null}
+ -t 8.85506552 -s 3 -d 2 -p ack -e 40 -c 1 -i 26 -a 1 -x {4.0 0.0 7 ------- null}
- -t 8.85506552 -s 3 -d 2 -p ack -e 40 -c 1 -i 26 -a 1 -x {4.0 0.0 7 ------- null}
h -t 8.85506552 -s 3 -d 2 -p ack -e 40 -c 1 -i 26 -a 1 -x {4.0 0.0 -1 ------- null}
r -t 8.90504984 -s 3 -d 2 -p ack -e 40 -c 1 -i 24 -a 1 -x {4.0 0.0 5 ------- null}
+ -t 8.90504984 -s 2 -d 0 -p ack -e 40 -c 1 -i 24 -a 1 -x {4.0 0.0 5 ------- null}
- -t 8.90504984 -s 2 -d 0 -p ack -e 40 -c 1 -i 24 -a 1 -x {4.0 0.0 5 ------- null}
h -t 8.90504984 -s 2 -d 0 -p ack -e 40 -c 1 -i 24 -a 1 -x {4.0 0.0 -1 ------- null}
r -t 8.90505784 -s 3 -d 2 -p ack -e 40 -c 1 -i 25 -a 1 -x {4.0 0.0 6 ------- null}
+ -t 8.90505784 -s 2 -d 0 -p ack -e 40 -c 1 -i 25 -a 1 -x {4.0 0.0 6 ------- null}
- -t 8.90505784 -s 2 -d 0 -p ack -e 40 -c 1 -i 25 -a 1 -x {4.0 0.0 6 ------- null}
h -t 8.90505784 -s 2 -d 0 -p ack -e 40 -c 1 -i 25 -a 1 -x {4.0 0.0 -1 ------- null}
r -t 8.90506584 -s 3 -d 2 -p ack -e 40 -c 1 -i 26 -a 1 -x {4.0 0.0 7 ------- null}
+ -t 8.90506584 -s 2 -d 0 -p ack -e 40 -c 1 -i 26 -a 1 -x {4.0 0.0 7 ------- null}
- -t 8.90506584 -s 2 -d 0 -p ack -e 40 -c 1 -i 26 -a 1 -x {4.0 0.0 7 ------- null}
h -t 8.90506584 -s 2 -d 0 -p ack -e 40 -c 1 -i 26 -a 1 -x {4.0 0.0 -1 ------- null}
r -t 9.06503256 -s 5 -d 3 -p ack -e 40 -c 2 -i 23 -a 2 -x {5.0 1.0 3 ------- null}
+ -t 9.06503256 -s 3 -d 2 -p ack -e 40 -c 2 -i 23 -a 2 -x {5.0 1.0 3 ------- null}
- -t 9.06503256 -s 3 -d 2 -p ack -e 40 -c 2 -i 23 -a 2 -x {5.0 1.0 3 ------- null}
h -t 9.06503256 -s 3 -d 2 -p ack -e 40 -c 2 -i 23 -a 2 -x {5.0 1.0 -1 ------- null}
r -t 9.11503288 -s 3 -d 2 -p ack -e 40 -c 2 -i 23 -a 2 -x {5.0 1.0 3 ------- null}
+ -t 9.11503288 -s 2 -d 1 -p ack -e 40 -c 2 -i 23 -a 2 -x {5.0 1.0 3 ------- null}
- -t 9.11503288 -s 2 -d 1 -p ack -e 40 -c 2 -i 23 -a 2 -x {5.0 1.0 3 ------- null}
h -t 9.11503288 -s 2 -d 1 -p ack -e 40 -c 2 -i 23 -a 2 -x {5.0 1.0 -1 ------- null}
r -t 9.47204992 -s 2 -d 0 -p ack -e 40 -c 1 -i 24 -a 1 -x {4.0 0.0 5 ------- null}
+ -t 9.47204992 -s 0 -d 2 -p tcp -e 1000 -c 1 -i 28 -a 1 -x {0.0 4.0 8 ------- null}
- -t 9.47204992 -s 0 -d 2 -p tcp -e 1000 -c 1 -i 28 -a 1 -x {0.0 4.0 8 ------- null}
h -t 9.47204992 -s 0 -d 2 -p tcp -e 1000 -c 1 -i 28 -a 1 -x {0.0 4.0 -1 ------- null}
+ -t 9.47204992 -s 0 -d 2 -p tcp -e 1000 -c 1 -i 29 -a 1 -x {0.0 4.0 9 ------- null}
- -t 9.47205192 -s 0 -d 2 -p tcp -e 1000 -c 1 -i 29 -a 1 -x {0.0 4.0 9 ------- null}
h -t 9.47205192 -s 0 -d 2 -p tcp -e 1000 -c 1 -i 29 -a 1 -x {0.0 4.0 -1 ------- null}
r -t 9.47205792 -s 2 -d 0 -p ack -e 40 -c 1 -i 25 -a 1 -x {4.0 0.0 6 ------- null}
+ -t 9.47205792 -s 0 -d 2 -p tcp -e 1000 -c 1 -i 30 -a 1 -x {0.0 4.0 10 ------- null}
- -t 9.47205792 -s 0 -d 2 -p tcp -e 1000 -c 1 -i 30 -a 1 -x {0.0 4.0 10 ------- null}
h -t 9.47205792 -s 0 -d 2 -p tcp -e 1000 -c 1 -i 30 -a 1 -x {0.0 4.0 -1 ------- null}
+ -t 9.47205792 -s 0 -d 2 -p tcp -e 1000 -c 1 -i 31 -a 1 -x {0.0 4.0 11 ------- null}
- -t 9.47205992 -s 0 -d 2 -p tcp -e 1000 -c 1 -i 31 -a 1 -x {0.0 4.0 11 ------- null}
h -t 9.47205992 -s 0 -d 2 -p tcp -e 1000 -c 1 -i 31 -a 1 -x {0.0 4.0 -1 ------- null}
r -t 9.47206592 -s 2 -d 0 -p ack -e 40 -c 1 -i 26 -a 1 -x {4.0 0.0 7 ------- null}
+ -t 9.47206592 -s 0 -d 2 -p tcp -e 1000 -c 1 -i 32 -a 1 -x {0.0 4.0 12 ------- null}
- -t 9.47206592 -s 0 -d 2 -p tcp -e 1000 -c 1 -i 32 -a 1 -x {0.0 4.0 12 ------- null}
h -t 9.47206592 -s 0 -d 2 -p tcp -e 1000 -c 1 -i 32 -a 1 -x {0.0 4.0 -1 ------- null}
+ -t 9.47206592 -s 0 -d 2 -p tcp -e 1000 -c 1 -i 33 -a 1 -x {0.0 4.0 13 ------- null}
- -t 9.47206792 -s 0 -d 2 -p tcp -e 1000 -c 1 -i 33 -a 1 -x {0.0 4.0 13 ------- null}
h -t 9.47206792 -s 0 -d 2 -p tcp -e 1000 -c 1 -i 33 -a 1 -x {0.0 4.0 -1 ------- null}
r -t 9.54503704 -s 5 -d 3 -p ack -e 40 -c 2 -i 27 -a 2 -x {5.0 1.0 4 ------- null}
+ -t 9.54503704 -s 3 -d 2 -p ack -e 40 -c 2 -i 27 -a 2 -x {5.0 1.0 4 ------- null}
- -t 9.54503704 -s 3 -d 2 -p ack -e 40 -c 2 -i 27 -a 2 -x {5.0 1.0 4 ------- null}
h -t 9.54503704 -s 3 -d 2 -p ack -e 40 -c 2 -i 27 -a 2 -x {5.0 1.0 -1 ------- null}
r -t 9.59503736 -s 3 -d 2 -p ack -e 40 -c 2 -i 27 -a 2 -x {5.0 1.0 4 ------- null}