0.00000  0  0  4  0  cwnd_ 1.000 
0.00000  0  0  4  0  ssthresh_ 20
0.00000  0  0  4  0  ack_ -1
0.00000  0  0  4  0  maxseq_ -1
0.00000  0  0  4  0  rtt_ 0.000 
0.00000  1  0  5  0  cwnd_ 1.000 
0.00000  1  0  5  0  ssthresh_ 20
0.00000  1  0  5  0  ack_ -1
0.00000  1  0  5  0  maxseq_ -1
0.00000  1  0  5  0  rtt_ 0.000 
0.00000  0  0  4  0  ssthresh_ 1000
0.00000  1  0  5  0  ssthresh_ 1000
+ 0 1 2 tcp 1000 ------- 2 1.0 5.0 0 0
- 0 1 2 tcp 1000 ------- 2 1.0 5.0 0 0
0.00000  1  0  5  0  maxseq_ 0
+ 0 0 2 tcp 1000 ------- 1 0.0 4.0 0 1
- 0 0 2 tcp 1000 ------- 1 0.0 4.0 0 1
0.00000  0  0  4  0  maxseq_ 0
r 0.567002 0 2 tcp 1000 ------- 1 0.0 4.0 0 1
+ 0.567002 2 3 tcp 1000 ------- 1 0.0 4.0 0 1
- 0.567002 2 3 tcp 1000 ------- 1 0.0 4.0 0 1
r 0.61701 2 3 tcp 1000 ------- 1 0.0 4.0 0 1
+ 0.61701 3 4 tcp 1000 ------- 1 0.0 4.0 0 1
- 0.61701 3 4 tcp 1000 ------- 1 0.0 4.0 0 1
r 0.845002 1 2 tcp 1000 ------- 2 1.0 5.0 0 0
+ 0.845002 2 3 tcp 1000 ------- 2 1.0 5.0 0 0
- 0.845002 2 3 tcp 1000 ------- 2 1.0 5.0 0 0
r 0.89501 2 3 tcp 1000 ------- 2 1.0 5.0 0 0
+ 0.89501 3 5 tcp 1000 ------- 2 1.0 5.0 0 0
- 0.89501 3 5 tcp 1000 ------- 2 1.0 5.0 0 0
r 1.184012 3 4 tcp 1000 ------- 1 0.0 4.0 0 1
+ 1.184012 4 3 ack 40 ------- 1 4.0 0.0 0 2
- 1.184012 4 3 ack 40 ------- 1 4.0 0.0 0 2
r 1.740012 3 5 tcp 1000 ------- 2 1.0 5.0 0 0
+ 1.740012 5 3 ack 40 ------- 2 5.0 1.0 0 3
- 1.740012 5 3 ack 40 ------- 2 5.0 1.0 0 3
r 1.751012 4 3 ack 40 ------- 1 4.0 0.0 0 2
+ 1.751012 3 2 ack 40 ------- 1 4.0 0.0 0 2
- 1.751012 3 2 ack 40 ------- 1 4.0 0.0 0 2
r 1.801012 3 2 ack 40 ------- 1 4.0 0.0 0 2
+ 1.801012 2 0 ack 40 ------- 1 4.0 0.0 0 2
- 1.801012 2 0 ack 40 ------- 1 4.0 0.0 0 2
r 2.368012 2 0 ack 40 ------- 1 4.0 0.0 0 2
2.36801  0  0  4  0  ack_ 0
2.36801  0  0  4  0  rtt_ 2.370 
+ 2.368012 0 2 tcp 1000 ------- 1 0.0 4.0 1 4
- 2.368012 0 2 tcp 1000 ------- 1 0.0 4.0 1 4
2.36801  0  0  4  0  maxseq_ 1
r 2.585012 5 3 ack 40 ------- 2 5.0 1.0 0 3
+ 2.585012 3 2 ack 40 ------- 2 5.0 1.0 0 3
- 2.585012 3 2 ack 40 ------- 2 5.0 1.0 0 3
r 2.635012 3 2 ack 40 ------- 2 5.0 1.0 0 3
+ 2.635012 2 1 ack 40 ------- 2 5.0 1.0 0 3
- 2.635012 2 1 ack 40 ------- 2 5.0 1.0 0 3
r 2.935014 0 2 tcp 1000 ------- 1 0.0 4.0 1 4
+ 2.935014 2 3 tcp 1000 ------- 1 0.0 4.0 1 4
- 2.935014 2 3 tcp 1000 ------- 1 0.0 4.0 1 4
r 2.985022 2 3 tcp 1000 ------- 1 0.0 4.0 1 4
+ 2.985022 3 4 tcp 1000 ------- 1 0.0 4.0 1 4
- 2.985022 3 4 tcp 1000 ------- 1 0.0 4.0 1 4
3.00000  1  0  5  0  ssthresh_ 0
3.00000  1  0  5  0  ssthresh_ 2
3.00000  1  0  5  0  cwnd_ 2.000 
+ 3 1 2 tcp 1000 ------- 2 1.0 5.0 0 5
- 3 1 2 tcp 1000 ------- 2 1.0 5.0 0 5
+ 3 1 2 tcp 1000 ------- 2 1.0 5.0 1 6
3.00000  1  0  5  0  maxseq_ 1
- 3.000002 1 2 tcp 1000 ------- 2 1.0 5.0 1 6
r 3.480012 2 1 ack 40 ------- 2 5.0 1.0 0 3
3.48001  1  0  5  0  ack_ 0
3.48001  1  0  5  0  cwnd_ 2.500 
+ 3.480012 1 2 tcp 1000 ------- 2 1.0 5.0 2 7
- 3.480012 1 2 tcp 1000 ------- 2 1.0 5.0 2 7
3.48001  1  0  5  0  maxseq_ 2
r 3.552024 3 4 tcp 1000 ------- 1 0.0 4.0 1 4
+ 3.552024 4 3 ack 40 ------- 1 4.0 0.0 1 8
- 3.552024 4 3 ack 40 ------- 1 4.0 0.0 1 8
r 3.845002 1 2 tcp 1000 ------- 2 1.0 5.0 0 5
+ 3.845002 2 3 tcp 1000 ------- 2 1.0 5.0 0 5
- 3.845002 2 3 tcp 1000 ------- 2 1.0 5.0 0 5
r 3.845004 1 2 tcp 1000 ------- 2 1.0 5.0 1 6
+ 3.845004 2 3 tcp 1000 ------- 2 1.0 5.0 1 6
- 3.84501 2 3 tcp 1000 ------- 2 1.0 5.0 1 6
r 3.89501 2 3 tcp 1000 ------- 2 1.0 5.0 0 5
+ 3.89501 3 5 tcp 1000 ------- 2 1.0 5.0 0 5
- 3.89501 3 5 tcp 1000 ------- 2 1.0 5.0 0 5
r 3.895018 2 3 tcp 1000 ------- 2 1.0 5.0 1 6
+ 3.895018 3 5 tcp 1000 ------- 2 1.0 5.0 1 6
- 3.895018 3 5 tcp 1000 ------- 2 1.0 5.0 1 6
r 4.119025 4 3 ack 40 ------- 1 4.0 0.0 1 8
+ 4.119025 3 2 ack 40 ------- 1 4.0 0.0 1 8
- 4.119025 3 2 ack 40 ------- 1 4.0 0.0 1 8
r 4.169025 3 2 ack 40 ------- 1 4.0 0.0 1 8
+ 4.169025 2 0 ack 40 ------- 1 4.0 0.0 1 8
- 4.169025 2 0 ack 40 ------- 1 4.0 0.0 1 8
r 4.325014 1 2 tcp 1000 ------- 2 1.0 5.0 2 7
+ 4.325014 2 3 tcp 1000 ------- 2 1.0 5.0 2 7
- 4.325014 2 3 tcp 1000 ------- 2 1.0 5.0 2 7
r 4.375022 2 3 tcp 1000 ------- 2 1.0 5.0 2 7
+ 4.375022 3 5 tcp 1000 ------- 2 1.0 5.0 2 7
- 4.375022 3 5 tcp 1000 ------- 2 1.0 5.0 2 7
r 4.736025 2 0 ack 40 ------- 1 4.0 0.0 1 8
4.73602  0  0  4  0  cwnd_ 2.000 
4.73602  0  0  4  0  ack_ 1
4.73602  0  0  4  0  cwnd_ 3.000 
+ 4.736025 0 2 tcp 1000 ------- 1 0.0 4.0 2 9
- 4.736025 0 2 tcp 1000 ------- 1 0.0 4.0 2 9
4.73602  0  0  4  0  maxseq_ 2
+ 4.736025 0 2 tcp 1000 ------- 1 0.0 4.0 3 10
4.73602  0  0  4  0  maxseq_ 3
+ 4.736025 0 2 tcp 1000 ------- 1 0.0 4.0 4 11
4.73602  0  0  4  0  maxseq_ 4
- 4.736027 0 2 tcp 1000 ------- 1 0.0 4.0 3 10
- 4.736029 0 2 tcp 1000 ------- 1 0.0 4.0 4 11
r 4.740012 3 5 tcp 1000 ------- 2 1.0 5.0 0 5
+ 4.740012 5 3 ack 40 ------- 2 5.0 1.0 0 12
- 4.740012 5 3 ack 40 ------- 2 5.0 1.0 0 12
r 4.74002 3 5 tcp 1000 ------- 2 1.0 5.0 1 6
+ 4.74002 5 3 ack 40 ------- 2 5.0 1.0 1 13
- 4.74002 5 3 ack 40 ------- 2 5.0 1.0 1 13
r 5.220024 3 5 tcp 1000 ------- 2 1.0 5.0 2 7
+ 5.220024 5 3 ack 40 ------- 2 5.0 1.0 2 14
- 5.220024 5 3 ack 40 ------- 2 5.0 1.0 2 14
r 5.303027 0 2 tcp 1000 ------- 1 0.0 4.0 2 9
+ 5.303027 2 3 tcp 1000 ------- 1 0.0 4.0 2 9
- 5.303027 2 3 tcp 1000 ------- 1 0.0 4.0 2 9
r 5.303029 0 2 tcp 1000 ------- 1 0.0 4.0 3 10
+ 5.303029 2 3 tcp 1000 ------- 1 0.0 4.0 3 10
r 5.303031 0 2 tcp 1000 ------- 1 0.0 4.0 4 11
+ 5.303031 2 3 tcp 1000 ------- 1 0.0 4.0 4 11
- 5.303035 2 3 tcp 1000 ------- 1 0.0 4.0 3 10
- 5.303043 2 3 tcp 1000 ------- 1 0.0 4.0 4 11
r 5.353035 2 3 tcp 1000 ------- 1 0.0 4.0 2 9
+ 5.353035 3 4 tcp 1000 ------- 1 0.0 4.0 2 9
- 5.353035 3 4 tcp 1000 ------- 1 0.0 4.0 2 9
r 5.353043 2 3 tcp 1000 ------- 1 0.0 4.0 3 10
+ 5.353043 3 4 tcp 1000 ------- 1 0.0 4.0 3 10
- 5.353043 3 4 tcp 1000 ------- 1 0.0 4.0 3 10
r 5.353051 2 3 tcp 1000 ------- 1 0.0 4.0 4 11
+ 5.353051 3 4 tcp 1000 ------- 1 0.0 4.0 4 11
- 5.353051 3 4 tcp 1000 ------- 1 0.0 4.0 4 11
r 5.585012 5 3 ack 40 ------- 2 5.0 1.0 0 12
+ 5.585012 3 2 ack 40 ------- 2 5.0 1.0 0 12
- 5.585012 3 2 ack 40 ------- 2 5.0 1.0 0 12
r 5.58502 5 3 ack 40 ------- 2 5.0 1.0 1 13
+ 5.58502 3 2 ack 40 ------- 2 5.0 1.0 1 13
- 5.58502 3 2 ack 40 ------- 2 5.0 1.0 1 13
r 5.635012 3 2 ack 40 ------- 2 5.0 1.0 0 12
+ 5.635012 2 1 ack 40 ------- 2 5.0 1.0 0 12
- 5.635012 2 1 ack 40 ------- 2 5.0 1.0 0 12
r 5.63502 3 2 ack 40 ------- 2 5.0 1.0 1 13
+ 5.63502 2 1 ack 40 ------- 2 5.0 1.0 1 13
- 5.63502 2 1 ack 40 ------- 2 5.0 1.0 1 13
r 5.920037 3 4 tcp 1000 ------- 1 0.0 4.0 2 9
+ 5.920037 4 3 ack 40 ------- 1 4.0 0.0 2 15
- 5.920037 4 3 ack 40 ------- 1 4.0 0.0 2 15
r 5.920045 3 4 tcp 1000 ------- 1 0.0 4.0 3 10
+ 5.920045 4 3 ack 40 ------- 1 4.0 0.0 3 16
- 5.920045 4 3 ack 40 ------- 1 4.0 0.0 3 16
r 5.920053 3 4 tcp 1000 ------- 1 0.0 4.0 4 11
+ 5.920053 4 3 ack 40 ------- 1 4.0 0.0 4 17
- 5.920053 4 3 ack 40 ------- 1 4.0 0.0 4 17
r 6.065025 5 3 ack 40 ------- 2 5.0 1.0 2 14
+ 6.065025 3 2 ack 40 ------- 2 5.0 1.0 2 14
- 6.065025 3 2 ack 40 ------- 2 5.0 1.0 2 14
r 6.115025 3 2 ack 40 ------- 2 5.0 1.0 2 14
+ 6.115025 2 1 ack 40 ------- 2 5.0 1.0 2 14
- 6.115025 2 1 ack 40 ------- 2 5.0 1.0 2 14
r 6.480012 2 1 ack 40 ------- 2 5.0 1.0 0 12
r 6.48002 2 1 ack 40 ------- 2 5.0 1.0 1 13
6.48002  1  0  5  0  cwnd_ 2.000 
6.48002  1  0  5  0  ack_ 1
6.48002  1  0  5  0  rtt_ 3.480 
6.48002  1  0  5  0  cwnd_ 2.500 
+ 6.48002 1 2 tcp 1000 ------- 2 1.0 5.0 3 18
- 6.48002 1 2 tcp 1000 ------- 2 1.0 5.0 3 18
6.48002  1  0  5  0  maxseq_ 3
r 6.487037 4 3 ack 40 ------- 1 4.0 0.0 2 15
+ 6.487037 3 2 ack 40 ------- 1 4.0 0.0 2 15
- 6.487037 3 2 ack 40 ------- 1 4.0 0.0 2 15
r 6.487045 4 3 ack 40 ------- 1 4.0 0.0 3 16
+ 6.487045 3 2 ack 40 ------- 1 4.0 0.0 3 16
- 6.487045 3 2 ack 40 ------- 1 4.0 0.0 3 16
r 6.487053 4 3 ack 40 ------- 1 4.0 0.0 4 17
+ 6.487053 3 2 ack 40 ------- 1 4.0 0.0 4 17
- 6.487053 3 2 ack 40 ------- 1 4.0 0.0 4 17
r 6.537037 3 2 ack 40 ------- 1 4.0 0.0 2 15
+ 6.537037 2 0 ack 40 ------- 1 4.0 0.0 2 15
- 6.537037 2 0 ack 40 ------- 1 4.0 0.0 2 15
r 6.537045 3 2 ack 40 ------- 1 4.0 0.0 3 16
+ 6.537045 2 0 ack 40 ------- 1 4.0 0.0 3 16
- 6.537045 2 0 ack 40 ------- 1 4.0 0.0 3 16
r 6.537053 3 2 ack 40 ------- 1 4.0 0.0 4 17
+ 6.537053 2 0 ack 40 ------- 1 4.0 0.0 4 17
- 6.537053 2 0 ack 40 ------- 1 4.0 0.0 4 17
r 6.960025 2 1 ack 40 ------- 2 5.0 1.0 2 14
6.96002  1  0  5  0  ack_ 2
+ 6.960025 1 2 tcp 1000 ------- 2 1.0 5.0 4 19
- 6.960025 1 2 tcp 1000 ------- 2 1.0 5.0 4 19
6.96002  1  0  5  0  maxseq_ 4
r 7.104037 2 0 ack 40 ------- 1 4.0 0.0 2 15
7.10404  0  0  4  0  ack_ 2
+ 7.104037 0 2 tcp 1000 ------- 1 0.0 4.0 5 20
- 7.104037 0 2 tcp 1000 ------- 1 0.0 4.0 5 20
7.10404  0  0  4  0  maxseq_ 5
r 7.104045 2 0 ack 40 ------- 1 4.0 0.0 3 16
7.10405  0  0  4  0  ack_ 3
+ 7.104045 0 2 tcp 1000 ------- 1 0.0 4.0 6 21
- 7.104045 0 2 tcp 1000 ------- 1 0.0 4.0 6 21
7.10405  0  0  4  0  maxseq_ 6
r 7.104053 2 0 ack 40 ------- 1 4.0 0.0 4 17
7.10405  0  0  4  0  ack_ 4
+ 7.104053 0 2 tcp 1000 ------- 1 0.0 4.0 7 22
- 7.104053 0 2 tcp 1000 ------- 1 0.0 4.0 7 22
7.10405  0  0  4  0  maxseq_ 7
r 7.325022 1 2 tcp 1000 ------- 2 1.0 5.0 3 18
+ 7.325022 2 3 tcp 1000 ------- 2 1.0 5.0 3 18
- 7.325022 2 3 tcp 1000 ------- 2 1.0 5.0 3 18
r 7.37503 2 3 tcp 1000 ------- 2 1.0 5.0 3 18
+ 7.37503 3 5 tcp 1000 ------- 2 1.0 5.0 3 18
- 7.37503 3 5 tcp 1000 ------- 2 1.0 5.0 3 18
r 7.671039 0 2 tcp 1000 ------- 1 0.0 4.0 5 20
+ 7.671039 2 3 tcp 1000 ------- 1 0.0 4.0 5 20
- 7.671039 2 3 tcp 1000 ------- 1 0.0 4.0 5 20
r 7.671047 0 2 tcp 1000 ------- 1 0.0 4.0 6 21
+ 7.671047 2 3 tcp 1000 ------- 1 0.0 4.0 6 21
- 7.671047 2 3 tcp 1000 ------- 1 0.0 4.0 6 21
r 7.671055 0 2 tcp 1000 ------- 1 0.0 4.0 7 22
+ 7.671055 2 3 tcp 1000 ------- 1 0.0 4.0 7 22
- 7.671055 2 3 tcp 1000 ------- 1 0.0 4.0 7 22
r 7.721047 2 3 tcp 1000 ------- 1 0.0 4.0 5 20
+ 7.721047 3 4 tcp 1000 ------- 1 0.0 4.0 5 20
- 7.721047 3 4 tcp 1000 ------- 1 0.0 4.0 5 20
r 7.721055 2 3 tcp 1000 ------- 1 0.0 4.0 6 21
+ 7.721055 3 4 tcp 1000 ------- 1 0.0 4.0 6 21
- 7.721055 3 4 tcp 1000 ------- 1 0.0 4.0 6 21
r 7.721063 2 3 tcp 1000 ------- 1 0.0 4.0 7 22
+ 7.721063 3 4 tcp 1000 ------- 1 0.0 4.0 7 22
- 7.721063 3 4 tcp 1000 ------- 1 0.0 4.0 7 22
r 7.805027 1 2 tcp 1000 ------- 2 1.0 5.0 4 19
+ 7.805027 2 3 tcp 1000 ------- 2 1.0 5.0 4 19
- 7.805027 2 3 tcp 1000 ------- 2 1.0 5.0 4 19
r 7.855035 2 3 tcp 1000 ------- 2 1.0 5.0 4 19
+ 7.855035 3 5 tcp 1000 ------- 2 1.0 5.0 4 19
- 7.855035 3 5 tcp 1000 ------- 2 1.0 5.0 4 19
r 8.220032 3 5 tcp 1000 ------- 2 1.0 5.0 3 18
+ 8.220032 5 3 ack 40 ------- 2 5.0 1.0 3 23
- 8.220032 5 3 ack 40 ------- 2 5.0 1.0 3 23
r 8.288049 3 4 tcp 1000 ------- 1 0.0 4.0 5 20
+ 8.288049 4 3 ack 40 ------- 1 4.0 0.0 5 24
- 8.288049 4 3 ack 40 ------- 1 4.0 0.0 5 24
r 8.288057 3 4 tcp 1000 ------- 1 0.0 4.0 6 21
+ 8.288057 4 3 ack 40 ------- 1 4.0 0.0 6 25
- 8.288057 4 3 ack 40 ------- 1 4.0 0.0 6 25
r 8.288065 3 4 tcp 1000 ------- 1 0.0 4.0 7 22
+ 8.288065 4 3 ack 40 ------- 1 4.0 0.0 7 26
- 8.288065 4 3 ack 40 ------- 1 4.0 0.0 7 26
r 8.700037 3 5 tcp 1000 ------- 2 1.0 5.0 4 19
+ 8.700037 5 3 ack 40 ------- 2 5.0 1.0 4 27
- 8.700037 5 3 ack 40 ------- 2 5.0 1.0 4 27
r 8.85505 4 3 ack 40 ------- 1 4.0 0.0 5 24
+ 8.85505 3 2 ack 40 ------- 1 4.0 0.0 5 24
- 8.85505 3 2 ack 40 ------- 1 4.0 0.0 5 24
r 8.855058 4 3 ack 40 ------- 1 4.0 0.0 6 25
+ 8.855058 3 2 ack 40 ------- 1 4.0 0.0 6 25
- 8.855058 3 2 ack 40 ------- 1 4.0 0.0 6 25
r 8.855066 4 3 ack 40 ------- 1 4.0 0.0 7 26
+ 8.855066 3 2 ack 40 ------- 1 4.0 0.0 7 26
- 8.855066 3 2 ack 40 ------- 1 4.0 0.0 7 26
r 8.90505 3 2 ack 40 ------- 1 4.0 0.0 5 24
+ 8.90505 2 0 ack 40 ------- 1 4.0 0.0 5 24
- 8.90505 2 0 ack 40 ------- 1 4.0 0.0 5 24
r 8.905058 3 2 ack 40 ------- 1 4.0 0.0 6 25
+ 8.905058 2 0 ack 40 ------- 1 4.0 0.0 6 25
- 8.905058 2 0 ack 40 ------- 1 4.0 0.0 6 25
r 8.905066 3 2 ack 40 ------- 1 4.0 0.0 7 26
+ 8.905066 2 0 ack 40 ------- 1 4.0 0.0 7 26
- 8.905066 2 0 ack 40 ------- 1 4.0 0.0 7 26
r 9.065033 5 3 ack 40 ------- 2 5.0 1.0 3 23
+ 9.065033 3 2 ack 40 ------- 2 5.0 1.0 3 23
- 9.065033 3 2 ack 40 ------- 2 5.0 1.0 3 23
r 9.115033 3 2 ack 40 ------- 2 5.0 1.0 3 23
+ 9.115033 2 1 ack 40 ------- 2 5.0 1.0 3 23
- 9.115033 2 1 ack 40 ------- 2 5.0 1.0 3 23
r 9.47205 2 0 ack 40 ------- 1 4.0 0.0 5 24
9.47205  0  0  4  0  ack_ 5
9.47205  0  0  4  0  cwnd_ 4.000 
+ 9.47205 0 2 tcp 1000 ------- 1 0.0 4.0 8 28
- 9.47205 0 2 tcp 1000 ------- 1 0.0 4.0 8 28
9.47205  0  0  4  0  maxseq_ 8
+ 9.47205 0 2 tcp 1000 ------- 1 0.0 4.0 9 29
9.47205  0  0  4  0  maxseq_ 9
- 9.472052 0 2 tcp 1000 ------- 1 0.0 4.0 9 29
r 9.472058 2 0 ack 40 ------- 1 4.0 0.0 6 25
9.47206  0  0  4  0  ack_ 6
9.47206  0  0  4  0  cwnd_ 5.000 
+ 9.472058 0 2 tcp 1000 ------- 1 0.0 4.0 10 30
- 9.472058 0 2 tcp 1000 ------- 1 0.0 4.0 10 30
9.47206  0  0  4  0  maxseq_ 10
+ 9.472058 0 2 tcp 1000 ------- 1 0.0 4.0 11 31
9.47206  0  0  4  0  maxseq_ 11
- 9.47206 0 2 tcp 1000 ------- 1 0.0 4.0 11 31
r 9.472066 2 0 ack 40 ------- 1 4.0 0.0 7 26
9.47207  0  0  4  0  ack_ 7
9.47207  0  0  4  0  cwnd_ 6.000 
+ 9.472066 0 2 tcp 1000 ------- 1 0.0 4.0 12 32
- 9.472066 0 2 tcp 1000 ------- 1 0.0 4.0 12 32
9.47207  0  0  4  0  maxseq_ 12
+ 9.472066 0 2 tcp 1000 ------- 1 0.0 4.0 13 33
9.47207  0  0  4  0  maxseq_ 13
- 9.472068 0 2 tcp 1000 ------- 1 0.0 4.0 13 33
r 9.545037 5 3 ack 40 ------- 2 5.0 1.0 4 27
+ 9.545037 3 2 ack 40 ------- 2 5.0 1.0 4 27
- 9.545037 3 2 ack 40 ------- 2 5.0 1.0 4 27
r 9.595037 3 2 ack 40 ------- 2 5.0 1.0 4 27
+ 9.595037 2 1 ack 40 ------- 2 5.0 1.0 4 27
- 9.595037 2 1 ack 40 ------- 2 5.0 1.0 4 27
r 9.960033 2 1 ack 40 ------- 2 5.0 1.0 3 23
9.96003  1  0  5  0  ack_ 3
+ 9.960033 1 2 tcp 1000 ------- 2 1.0 5.0 5 34
- 9.960033 1 2 tcp 1000 ------- 2 1.0 5.0 5 34
9.96003  1  0  5  0  maxseq_ 5
r 10.039052 0 2 tcp 1000 ------- 1 0.0 4.0 8 28
+ 10.039052 2 3 tcp 1000 ------- 1 0.0 4.0 8 28
- 10.039052 2 3 tcp 1000 ------- 1 0.0 4.0 8 28
r 10.039054 0 2 tcp 1000 ------- 1 0.0 4.0 9 29
+ 10.039054 2 3 tcp 1000 ------- 1 0.0 4.0 9 29
- 10.03906 2 3 tcp 1000 ------- 1 0.0 4.0 9 29
r 10.03906 0 2 tcp 1000 ------- 1 0.0 4.0 10 30
+ 10.03906 2 3 tcp 1000 ------- 1 0.0 4.0 10 30
r 10.039062 0 2 tcp 1000 ------- 1 0.0 4.0 11 31
+ 10.039062 2 3 tcp 1000 ------- 1 0.0 4.0 11 31
- 10.039068 2 3 tcp 1000 ------- 1 0.0 4.0 10 30
r 10.039068 0 2 tcp 1000 ------- 1 0.0 4.0 12 32
+ 10.039068 2 3 tcp 1000 ------- 1 0.0 4.0 12 32
r 10.03907 0 2 tcp 1000 ------- 1 0.0 4.0 13 33
+ 10.03907 2 3 tcp 1000 ------- 1 0.0 4.0 13 33
- 10.039076 2 3 tcp 1000 ------- 1 0.0 4.0 11 31
- 10.039084 2 3 tcp 1000 ------- 1 0.0 4.0 12 32
- 10.039092 2 3 tcp 1000 ------- 1 0.0 4.0 13 33
r 10.08906 2 3 tcp 1000 ------- 1 0.0 4.0 8 28
+ 10.08906 3 4 tcp 1000 ------- 1 0.0 4.0 8 28
- 10.08906 3 4 tcp 1000 ------- 1 0.0 4.0 8 28
r 10.089068 2 3 tcp 1000 ------- 1 0.0 4.0 9 29
+ 10.089068 3 4 tcp 1000 ------- 1 0.0 4.0 9 29
- 10.089068 3 4 tcp 1000 ------- 1 0.0 4.0 9 29
r 10.089076 2 3 tcp 1000 ------- 1 0.0 4.0 10 30
+ 10.089076 3 4 tcp 1000 ------- 1 0.0 4.0 10 30
- 10.089076 3 4 tcp 1000 ------- 1 0.0 4.0 10 30
r 10.089084 2 3 tcp 1000 ------- 1 0.0 4.0 11 31
+ 10.089084 3 4 tcp 1000 ------- 1 0.0 4.0 11 31
- 10.089084 3 4 tcp 1000 ------- 1 0.0 4.0 11 31
r 10.089092 2 3 tcp 1000 ------- 1 0.0 4.0 12 32
+ 10.089092 3 4 tcp 1000 ------- 1 0.0 4.0 12 32
- 10.089092 3 4 tcp 1000 ------- 1 0.0 4.0 12 32
r 10.0891 2 3 tcp 1000 ------- 1 0.0 4.0 13 33
+ 10.0891 3 4 tcp 1000 ------- 1 0.0 4.0 13 33
- 10.0891 3 4 tcp 1000 ------- 1 0.0 4.0 13 33
r 10.440037 2 1 ack 40 ------- 2 5.0 1.0 4 27
10.44004 1  0  5  0  ack_ 4
+ 10.440037 1 2 tcp 1000 ------- 2 1.0 5.0 6 35
- 10.440037 1 2 tcp 1000 ------- 2 1.0 5.0 6 35
10.44004 1  0  5  0  maxseq_ 6
r 10.656062 3 4 tcp 1000 ------- 1 0.0 4.0 8 28
+ 10.656062 4 3 ack 40 ------- 1 4.0 0.0 8 36
- 10.656062 4 3 ack 40 ------- 1 4.0 0.0 8 36
r 10.65607 3 4 tcp 1000 ------- 1 0.0 4.0 9 29
+ 10.65607 4 3 ack 40 ------- 1 4.0 0.0 9 37
- 10.65607 4 3 ack 40 ------- 1 4.0 0.0 9 37
r 10.656078 3 4 tcp 1000 ------- 1 0.0 4.0 10 30
+ 10.656078 4 3 ack 40 ------- 1 4.0 0.0 10 38
- 10.656078 4 3 ack 40 ------- 1 4.0 0.0 10 38
r 10.656086 3 4 tcp 1000 ------- 1 0.0 4.0 11 31
+ 10.656086 4 3 ack 40 ------- 1 4.0 0.0 11 39
- 10.656086 4 3 ack 40 ------- 1 4.0 0.0 11 39
r 10.656094 3 4 tcp 1000 ------- 1 0.0 4.0 12 32
+ 10.656094 4 3 ack 40 ------- 1 4.0 0.0 12 40
- 10.656094 4 3 ack 40 ------- 1 4.0 0.0 12 40
r 10.656102 3 4 tcp 1000 ------- 1 0.0 4.0 13 33
+ 10.656102 4 3 ack 40 ------- 1 4.0 0.0 13 41
- 10.656102 4 3 ack 40 ------- 1 4.0 0.0 13 41
r 10.805035 1 2 tcp 1000 ------- 2 1.0 5.0 5 34
+ 10.805035 2 3 tcp 1000 ------- 2 1.0 5.0 5 34
- 10.805035 2 3 tcp 1000 ------- 2 1.0 5.0 5 34
r 10.855043 2 3 tcp 1000 ------- 2 1.0 5.0 5 34
+ 10.855043 3 5 tcp 1000 ------- 2 1.0 5.0 5 34
- 10.855043 3 5 tcp 1000 ------- 2 1.0 5.0 5 34
r 11.223062 4 3 ack 40 ------- 1 4.0 0.0 8 36
+ 11.223062 3 2 ack 40 ------- 1 4.0 0.0 8 36
- 11.223062 3 2 ack 40 ------- 1 4.0 0.0 8 36
r 11.22307 4 3 ack 40 ------- 1 4.0 0.0 9 37
+ 11.22307 3 2 ack 40 ------- 1 4.0 0.0 9 37
- 11.22307 3 2 ack 40 ------- 1 4.0 0.0 9 37
r 11.223078 4 3 ack 40 ------- 1 4.0 0.0 10 38
+ 11.223078 3 2 ack 40 ------- 1 4.0 0.0 10 38
- 11.223078 3 2 ack 40 ------- 1 4.0 0.0 10 38
r 11.223086 4 3 ack 40 ------- 1 4.0 0.0 11 39
+ 11.223086 3 2 ack 40 ------- 1 4.0 0.0 11 39
- 11.223086 3 2 ack 40 ------- 1 4.0 0.0 11 39
r 11.223094 4 3 ack 40 ------- 1 4.0 0.0 12 40
+ 11.223094 3 2 ack 40 ------- 1 4.0 0.0 12 40
- 11.223094 3 2 ack 40 ------- 1 4.0 0.0 12 40
r 11.223102 4 3 ack 40 ------- 1 4.0 0.0 13 41
+ 11.223102 3 2 ack 40 ------- 1 4.0 0.0 13 41
- 11.223102 3 2 ack 40 ------- 1 4.0 0.0 13 41
r 11.273062 3 2 ack 40 ------- 1 4.0 0.0 8 36
+ 11.273062 2 0 ack 40 ------- 1 4.0 0.0 8 36
- 11.273062 2 0 ack 40 ------- 1 4.0 0.0 8 36
r 11.27307 3 2 ack 40 ------- 1 4.0 0.0 9 37
+ 11.27307 2 0 ack 40 ------- 1 4.0 0.0 9 37
- 11.27307 2 0 ack 40 ------- 1 4.0 0.0 9 37
r 11.273078 3 2 ack 40 ------- 1 4.0 0.0 10 38
+ 11.273078 2 0 ack 40 ------- 1 4.0 0.0 10 38
- 11.273078 2 0 ack 40 ------- 1 4.0 0.0 10 38
r 11.273086 3 2 ack 40 ------- 1 4.0 0.0 11 39
+ 11.273086 2 0 ack 40 ------- 1 4.0 0.0 11 39
- 11.273086 2 0 ack 40 ------- 1 4.0 0.0 11 39
r 11.273094 3 2 ack 40 ------- 1 4.0 0.0 12 40
+ 11.273094 2 0 ack 40 ------- 1 4.0 0.0 12 40
- 11.273094 2 0 ack 40 ------- 1 4.0 0.0 12 40
r 11.273102 3 2 ack 40 ------- 1 4.0 0.0 13 41
+ 11.273102 2 0 ack 40 ------- 1 4.0 0.0 13 41
- 11.273102 2 0 ack 40 ------- 1 4.0 0.0 13 41
r 11.285039 1 2 tcp 1000 ------- 2 1.0 5.0 6 35
+ 11.285039 2 3 tcp 1000 ------- 2 1.0 5.0 6 35
- 11.285039 2 3 tcp 1000 ------- 2 1.0 5.0 6 35
r 11.335047 2 3 tcp 1000 ------- 2 1.0 5.0 6 35
+ 11.335047 3 5 tcp 1000 ------- 2 1.0 5.0 6 35
- 11.335047 3 5 tcp 1000 ------- 2 1.0 5.0 6 35
r 11.700045 3 5 tcp 1000 ------- 2 1.0 5.0 5 34
+ 11.700045 5 3 ack 40 ------- 2 5.0 1.0 5 42
- 11.700045 5 3 ack 40 ------- 2 5.0 1.0 5 42
r 11.840062 2 0 ack 40 ------- 1 4.0 0.0 8 36
11.84006 0  0  4  0  ack_ 8
11.84006 0  0  4  0  rtt_ 2.360 
+ 11.840062 0 2 tcp 1000 ------- 1 0.0 4.0 14 43
- 11.840062 0 2 tcp 1000 ------- 1 0.0 4.0 14 43
11.84006 0  0  4  0  maxseq_ 14
r 11.84007 2 0 ack 40 ------- 1 4.0 0.0 9 37
11.84007 0  0  4  0  ack_ 9
+ 11.84007 0 2 tcp 1000 ------- 1 0.0 4.0 15 44
- 11.84007 0 2 tcp 1000 ------- 1 0.0 4.0 15 44
11.84007 0  0  4  0  maxseq_ 15
r 11.840078 2 0 ack 40 ------- 1 4.0 0.0 10 38
11.84008 0  0  4  0  ack_ 10
+ 11.840078 0 2 tcp 1000 ------- 1 0.0 4.0 16 45
- 11.840078 0 2 tcp 1000 ------- 1 0.0 4.0 16 45
11.84008 0  0  4  0  maxseq_ 16
r 11.840086 2 0 ack 40 ------- 1 4.0 0.0 11 39
11.84009 0  0  4  0  ack_ 11
+ 11.840086 0 2 tcp 1000 ------- 1 0.0 4.0 17 46
- 11.840086 0 2 tcp 1000 ------- 1 0.0 4.0 17 46
11.84009 0  0  4  0  maxseq_ 17
r 11.840094 2 0 ack 40 ------- 1 4.0 0.0 12 40
11.84009 0  0  4  0  ack_ 12
+ 11.840094 0 2 tcp 1000 ------- 1 0.0 4.0 18 47
- 11.840094 0 2 tcp 1000 ------- 1 0.0 4.0 18 47
11.84009 0  0  4  0  maxseq_ 18
r 11.840102 2 0 ack 40 ------- 1 4.0 0.0 13 41
11.84010 0  0  4  0  ack_ 13
+ 11.840102 0 2 tcp 1000 ------- 1 0.0 4.0 19 48
- 11.840102 0 2 tcp 1000 ------- 1 0.0 4.0 19 48
11.84010 0  0  4  0  maxseq_ 19
r 12.180049 3 5 tcp 1000 ------- 2 1.0 5.0 6 35
+ 12.180049 5 3 ack 40 ------- 2 5.0 1.0 6 49
- 12.180049 5 3 ack 40 ------- 2 5.0 1.0 6 49
r 12.407064 0 2 tcp 1000 ------- 1 0.0 4.0 14 43
+ 12.407064 2 3 tcp 1000 ------- 1 0.0 4.0 14 43
- 12.407064 2 3 tcp 1000 ------- 1 0.0 4.0 14 43
r 12.407072 0 2 tcp 1000 ------- 1 0.0 4.0 15 44
+ 12.407072 2 3 tcp 1000 ------- 1 0.0 4.0 15 44
- 12.407072 2 3 tcp 1000 ------- 1 0.0 4.0 15 44
r 12.40708 0 2 tcp 1000 ------- 1 0.0 4.0 16 45
+ 12.40708 2 3 tcp 1000 ------- 1 0.0 4.0 16 45
- 12.40708 2 3 tcp 1000 ------- 1 0.0 4.0 16 45
r 12.407088 0 2 tcp 1000 ------- 1 0.0 4.0 17 46
+ 12.407088 2 3 tcp 1000 ------- 1 0.0 4.0 17 46
- 12.407088 2 3 tcp 1000 ------- 1 0.0 4.0 17 46
r 12.407096 0 2 tcp 1000 ------- 1 0.0 4.0 18 47
+ 12.407096 2 3 tcp 1000 ------- 1 0.0 4.0 18 47
- 12.407096 2 3 tcp 1000 ------- 1 0.0 4.0 18 47
r 12.407104 0 2 tcp 1000 ------- 1 0.0 4.0 19 48
+ 12.407104 2 3 tcp 1000 ------- 1 0.0 4.0 19 48
- 12.407104 2 3 tcp 1000 ------- 1 0.0 4.0 19 48
r 12.457072 2 3 tcp 1000 ------- 1 0.0 4.0 14 43
+ 12.457072 3 4 tcp 1000 ------- 1 0.0 4.0 14 43
- 12.457072 3 4 tcp 1000 ------- 1 0.0 4.0 14 43
r 12.45708 2 3 tcp 1000 ------- 1 0.0 4.0 15 44
+ 12.45708 3 4 tcp 1000 ------- 1 0.0 4.0 15 44
- 12.45708 3 4 tcp 1000 ------- 1 0.0 4.0 15 44
r 12.457088 2 3 tcp 1000 ------- 1 0.0 4.0 16 45
+ 12.457088 3 4 tcp 1000 ------- 1 0.0 4.0 16 45
- 12.457088 3 4 tcp 1000 ------- 1 0.0 4.0 16 45
r 12.457096 2 3 tcp 1000 ------- 1 0.0 4.0 17 46
+ 12.457096 3 4 tcp 1000 ------- 1 0.0 4.0 17 46
- 12.457096 3 4 tcp 1000 ------- 1 0.0 4.0 17 46
r 12.457104 2 3 tcp 1000 ------- 1 0.0 4.0 18 47
+ 12.457104 3 4 tcp 1000 ------- 1 0.0 4.0 18 47
- 12.457104 3 4 tcp 1000 ------- 1 0.0 4.0 18 47
r 12.457112 2 3 tcp 1000 ------- 1 0.0 4.0 19 48
+ 12.457112 3 4 tcp 1000 ------- 1 0.0 4.0 19 48
- 12.457112 3 4 tcp 1000 ------- 1 0.0 4.0 19 48
r 12.545045 5 3 ack 40 ------- 2 5.0 1.0 5 42
+ 12.545045 3 2 ack 40 ------- 2 5.0 1.0 5 42
- 12.545045 3 2 ack 40 ------- 2 5.0 1.0 5 42
r 12.595045 3 2 ack 40 ------- 2 5.0 1.0 5 42
+ 12.595045 2 1 ack 40 ------- 2 5.0 1.0 5 42
- 12.595045 2 1 ack 40 ------- 2 5.0 1.0 5 42
r 13.024074 3 4 tcp 1000 ------- 1 0.0 4.0 14 43
+ 13.024074 4 3 ack 40 ------- 1 4.0 0.0 14 50
- 13.024074 4 3 ack 40 ------- 1 4.0 0.0 14 50
r 13.024082 3 4 tcp 1000 ------- 1 0.0 4.0 15 44
+ 13.024082 4 3 ack 40 ------- 1 4.0 0.0 15 51
- 13.024082 4 3 ack 40 ------- 1 4.0 0.0 15 51
r 13.02409 3 4 tcp 1000 ------- 1 0.0 4.0 16 45
+ 13.02409 4 3 ack 40 ------- 1 4.0 0.0 16 52
- 13.02409 4 3 ack 40 ------- 1 4.0 0.0 16 52
r 13.024098 3 4 tcp 1000 ------- 1 0.0 4.0 17 46
+ 13.024098 4 3 ack 40 ------- 1 4.0 0.0 17 53
- 13.024098 4 3 ack 40 ------- 1 4.0 0.0 17 53
r 13.024106 3 4 tcp 1000 ------- 1 0.0 4.0 18 47
+ 13.024106 4 3 ack 40 ------- 1 4.0 0.0 18 54
- 13.024106 4 3 ack 40 ------- 1 4.0 0.0 18 54
r 13.024114 3 4 tcp 1000 ------- 1 0.0 4.0 19 48
+ 13.024114 4 3 ack 40 ------- 1 4.0 0.0 19 55
- 13.024114 4 3 ack 40 ------- 1 4.0 0.0 19 55
r 13.02505 5 3 ack 40 ------- 2 5.0 1.0 6 49
+ 13.02505 3 2 ack 40 ------- 2 5.0 1.0 6 49
- 13.02505 3 2 ack 40 ------- 2 5.0 1.0 6 49
r 13.07505 3 2 ack 40 ------- 2 5.0 1.0 6 49
+ 13.07505 2 1 ack 40 ------- 2 5.0 1.0 6 49
- 13.07505 2 1 ack 40 ------- 2 5.0 1.0 6 49
r 13.440045 2 1 ack 40 ------- 2 5.0 1.0 5 42
13.44005 1  0  5  0  ack_ 5
+ 13.440045 1 2 tcp 1000 ------- 2 1.0 5.0 7 56
- 13.440045 1 2 tcp 1000 ------- 2 1.0 5.0 7 56
13.44005 1  0  5  0  maxseq_ 7
r 13.591074 4 3 ack 40 ------- 1 4.0 0.0 14 50
+ 13.591074 3 2 ack 40 ------- 1 4.0 0.0 14 50
- 13.591074 3 2 ack 40 ------- 1 4.0 0.0 14 50
r 13.591082 4 3 ack 40 ------- 1 4.0 0.0 15 51
+ 13.591082 3 2 ack 40 ------- 1 4.0 0.0 15 51
- 13.591082 3 2 ack 40 ------- 1 4.0 0.0 15 51
r 13.59109 4 3 ack 40 ------- 1 4.0 0.0 16 52
+ 13.59109 3 2 ack 40 ------- 1 4.0 0.0 16 52
- 13.59109 3 2 ack 40 ------- 1 4.0 0.0 16 52
r 13.591098 4 3 ack 40 ------- 1 4.0 0.0 17 53
+ 13.591098 3 2 ack 40 ------- 1 4.0 0.0 17 53
- 13.591098 3 2 ack 40 ------- 1 4.0 0.0 17 53
r 13.591106 4 3 ack 40 ------- 1 4.0 0.0 18 54
+ 13.591106 3 2 ack 40 ------- 1 4.0 0.0 18 54
- 13.591106 3 2 ack 40 ------- 1 4.0 0.0 18 54
r 13.591114 4 3 ack 40 ------- 1 4.0 0.0 19 55
+ 13.591114 3 2 ack 40 ------- 1 4.0 0.0 19 55
- 13.591114 3 2 ack 40 ------- 1 4.0 0.0 19 55
r 13.641075 3 2 ack 40 ------- 1 4.0 0.0 14 50
+ 13.641075 2 0 ack 40 ------- 1 4.0 0.0 14 50
- 13.641075 2 0 ack 40 ------- 1 4.0 0.0 14 50
r 13.641083 3 2 ack 40 ------- 1 4.0 0.0 15 51
+ 13.641083 2 0 ack 40 ------- 1 4.0 0.0 15 51
- 13.641083 2 0 ack 40 ------- 1 4.0 0.0 15 51
r 13.641091 3 2 ack 40 ------- 1 4.0 0.0 16 52
+ 13.641091 2 0 ack 40 ------- 1 4.0 0.0 16 52
- 13.641091 2 0 ack 40 ------- 1 4.0 0.0 16 52
r 13.641099 3 2 ack 40 ------- 1 4.0 0.0 17 53
+ 13.641099 2 0 ack 40 ------- 1 4.0 0.0 17 53
- 13.641099 2 0 ack 40 ------- 1 4.0 0.0 17 53
r 13.641107 3 2 ack 40 ------- 1 4.0 0.0 18 54
+ 13.641107 2 0 ack 40 ------- 1 4.0 0.0 18 54
- 13.641107 2 0 ack 40 ------- 1 4.0 0.0 18 54
r 13.641115 3 2 ack 40 ------- 1 4.0 0.0 19 55
+ 13.641115 2 0 ack 40 ------- 1 4.0 0.0 19 55
- 13.641115 2 0 ack 40 ------- 1 4.0 0.0 19 55
r 13.92005 2 1 ack 40 ------- 2 5.0 1.0 6 49
13.92005 1  0  5  0  ack_ 6
+ 13.92005 1 2 tcp 1000 ------- 2 1.0 5.0 8 57
- 13.92005 1 2 tcp 1000 ------- 2 1.0 5.0 8 57
13.92005 1  0  5  0  maxseq_ 8
r 14.208075 2 0 ack 40 ------- 1 4.0 0.0 14 50
14.20807 0  0  4  0  ack_ 14
14.20807 0  0  4  0  rtt_ 2.370 
14.20807 0  0  4  0  cwnd_ 7.000 
+ 14.208075 0 2 tcp 1000 ------- 1 0.0 4.0 20 58
- 14.208075 0 2 tcp 1000 ------- 1 0.0 4.0 20 58
14.20807 0  0  4  0  maxseq_ 20
+ 14.208075 0 2 tcp 1000 ------- 1 0.0 4.0 21 59
14.20807 0  0  4  0  maxseq_ 21
- 14.208077 0 2 tcp 1000 ------- 1 0.0 4.0 21 59
r 14.208083 2 0 ack 40 ------- 1 4.0 0.0 15 51
14.20808 0  0  4  0  ack_ 15
14.20808 0  0  4  0  cwnd_ 8.000 
+ 14.208083 0 2 tcp 1000 ------- 1 0.0 4.0 22 60
- 14.208083 0 2 tcp 1000 ------- 1 0.0 4.0 22 60
14.20808 0  0  4  0  maxseq_ 22
+ 14.208083 0 2 tcp 1000 ------- 1 0.0 4.0 23 61
14.20808 0  0  4  0  maxseq_ 23
- 14.208085 0 2 tcp 1000 ------- 1 0.0 4.0 23 61
r 14.208091 2 0 ack 40 ------- 1 4.0 0.0 16 52
14.20809 0  0  4  0  ack_ 16
14.20809 0  0  4  0  cwnd_ 9.000 
+ 14.208091 0 2 tcp 1000 ------- 1 0.0 4.0 24 62
- 14.208091 0 2 tcp 1000 ------- 1 0.0 4.0 24 62
14.20809 0  0  4  0  maxseq_ 24
+ 14.208091 0 2 tcp 1000 ------- 1 0.0 4.0 25 63
14.20809 0  0  4  0  maxseq_ 25
- 14.208093 0 2 tcp 1000 ------- 1 0.0 4.0 25 63
r 14.208099 2 0 ack 40 ------- 1 4.0 0.0 17 53
14.20810 0  0  4  0  ack_ 17
14.20810 0  0  4  0  cwnd_ 10.000
+ 14.208099 0 2 tcp 1000 ------- 1 0.0 4.0 26 64
- 14.208099 0 2 tcp 1000 ------- 1 0.0 4.0 26 64
14.20810 0  0  4  0  maxseq_ 26
+ 14.208099 0 2 tcp 1000 ------- 1 0.0 4.0 27 65
14.20810 0  0  4  0  maxseq_ 27
- 14.208101 0 2 tcp 1000 ------- 1 0.0 4.0 27 65
r 14.208107 2 0 ack 40 ------- 1 4.0 0.0 18 54
14.20811 0  0  4  0  ack_ 18
14.20811 0  0  4  0  cwnd_ 11.000
+ 14.208107 0 2 tcp 1000 ------- 1 0.0 4.0 28 66
- 14.208107 0 2 tcp 1000 ------- 1 0.0 4.0 28 66
14.20811 0  0  4  0  maxseq_ 28
+ 14.208107 0 2 tcp 1000 ------- 1 0.0 4.0 29 67
14.20811 0  0  4  0  maxseq_ 29
- 14.208109 0 2 tcp 1000 ------- 1 0.0 4.0 29 67
r 14.208115 2 0 ack 40 ------- 1 4.0 0.0 19 55
14.20811 0  0  4  0  ack_ 19
14.20811 0  0  4  0  cwnd_ 12.000
+ 14.208115 0 2 tcp 1000 ------- 1 0.0 4.0 30 68
- 14.208115 0 2 tcp 1000 ------- 1 0.0 4.0 30 68
14.20811 0  0  4  0  maxseq_ 30
+ 14.208115 0 2 tcp 1000 ------- 1 0.0 4.0 31 69
14.20811 0  0  4  0  maxseq_ 31
- 14.208117 0 2 tcp 1000 ------- 1 0.0 4.0 31 69
r 14.285047 1 2 tcp 1000 ------- 2 1.0 5.0 7 56
+ 14.285047 2 3 tcp 1000 ------- 2 1.0 5.0 7 56
- 14.285047 2 3 tcp 1000 ------- 2 1.0 5.0 7 56
r 14.335055 2 3 tcp 1000 ------- 2 1.0 5.0 7 56
+ 14.335055 3 5 tcp 1000 ------- 2 1.0 5.0 7 56
- 14.335055 3 5 tcp 1000 ------- 2 1.0 5.0 7 56
r 14.765052 1 2 tcp 1000 ------- 2 1.0 5.0 8 57
+ 14.765052 2 3 tcp 1000 ------- 2 1.0 5.0 8 57
- 14.765052 2 3 tcp 1000 ------- 2 1.0 5.0 8 57
r 14.775077 0 2 tcp 1000 ------- 1 0.0 4.0 20 58
+ 14.775077 2 3 tcp 1000 ------- 1 0.0 4.0 20 58
- 14.775077 2 3 tcp 1000 ------- 1 0.0 4.0 20 58
r 14.775079 0 2 tcp 1000 ------- 1 0.0 4.0 21 59
+ 14.775079 2 3 tcp 1000 ------- 1 0.0 4.0 21 59
r 14.775085 0 2 tcp 1000 ------- 1 0.0 4.0 22 60
+ 14.775085 2 3 tcp 1000 ------- 1 0.0 4.0 22 60
- 14.775085 2 3 tcp 1000 ------- 1 0.0 4.0 21 59
r 14.775087 0 2 tcp 1000 ------- 1 0.0 4.0 23 61
+ 14.775087 2 3 tcp 1000 ------- 1 0.0 4.0 23 61
r 14.775093 0 2 tcp 1000 ------- 1 0.0 4.0 24 62
+ 14.775093 2 3 tcp 1000 ------- 1 0.0 4.0 24 62
- 14.775093 2 3 tcp 1000 ------- 1 0.0 4.0 22 60
r 14.775095 0 2 tcp 1000 ------- 1 0.0 4.0 25 63
+ 14.775095 2 3 tcp 1000 ------- 1 0.0 4.0 25 63
r 14.775101 0 2 tcp 1000 ------- 1 0.0 4.0 26 64
+ 14.775101 2 3 tcp 1000 ------- 1 0.0 4.0 26 64
- 14.775101 2 3 tcp 1000 ------- 1 0.0 4.0 23 61
r 14.775103 0 2 tcp 1000 ------- 1 0.0 4.0 27 65
+ 14.775103 2 3 tcp 1000 ------- 1 0.0 4.0 27 65
r 14.775109 0 2 tcp 1000 ------- 1 0.0 4.0 28 66
+ 14.775109 2 3 tcp 1000 ------- 1 0.0 4.0 28 66
- 14.775109 2 3 tcp 1000 ------- 1 0.0 4.0 24 62
r 14.775111 0 2 tcp 1000 ------- 1 0.0 4.0 29 67
+ 14.775111 2 3 tcp 1000 ------- 1 0.0 4.0 29 67
r 14.775117 0 2 tcp 1000 ------- 1 0.0 4.0 30 68
+ 14.775117 2 3 tcp 1000 ------- 1 0.0 4.0 30 68
- 14.775117 2 3 tcp 1000 ------- 1 0.0 4.0 25 63
r 14.775119 0 2 tcp 1000 ------- 1 0.0 4.0 31 69
+ 14.775119 2 3 tcp 1000 ------- 1 0.0 4.0 31 69
- 14.775125 2 3 tcp 1000 ------- 1 0.0 4.0 26 64
- 14.775133 2 3 tcp 1000 ------- 1 0.0 4.0 27 65
- 14.775141 2 3 tcp 1000 ------- 1 0.0 4.0 28 66