0.00000  0  0  4  0  cwnd_ 1.000 
0.00000  0  0  4  0  ssthresh_ 20
0.00000  0  0  4  0  ack_ -1
0.00000  0  0  4  0  maxseq_ -1
0.00000  0  0  4  0  rtt_ 0.000 
0.00000  1  0  5  0  cwnd_ 1.000 
0.00000  1  0  5  0  ssthresh_ 20
0.00000  1  0  5  0  ack_ -1
0.00000  1  0  5  0  maxseq_ -1
0.00000  1  0  5  0  rtt_ 0.000 
0.00000  0  0  4  0  ssthresh_ 1000
0.00000  1  0  5  0  ssthresh_ 1000
+ 0 1 2 tcp 1000 ------- 2 1.0 5.0 0 0
- 0 1 2 tcp 1000 ------- 2 1.0 5.0 0 0
0.00000  1  0  5  0  maxseq_ 0
+ 0 0 2 tcp 1000 ------- 1 0.0 4.0 0 1
- 0 0 2 tcp 1000 ------- 1 0.0 4.0 0 1
0.00000  0  0  4  0  maxseq_ 0
r 0.545002 0 2 tcp 1000 ------- 1 0.0 4.0 0 1
+ 0.545002 2 3 tcp 1000 ------- 1 0.0 4.0 0 1
- 0.545002 2 3 tcp 1000 ------- 1 0.0 4.0 0 1
r 0.59501 2 3 tcp 1000 ------- 1 0.0 4.0 0 1
+ 0.59501 3 4 tcp 1000 ------- 1 0.0 4.0 0 1
- 0.59501 3 4 tcp 1000 ------- 1 0.0 4.0 0 1
r 0.823002 1 2 tcp 1000 ------- 2 1.0 5.0 0 0
+ 0.823002 2 3 tcp 1000 ------- 2 1.0 5.0 0 0
- 0.823002 2 3 tcp 1000 ------- 2 1.0 5.0 0 0
r 0.87301 2 3 tcp 1000 ------- 2 1.0 5.0 0 0
+ 0.87301 3 5 tcp 1000 ------- 2 1.0 5.0 0 0
- 0.87301 3 5 tcp 1000 ------- 2 1.0 5.0 0 0
r 1.140012 3 4 tcp 1000 ------- 1 0.0 4.0 0 1
+ 1.140012 4 3 ack 40 ------- 1 4.0 0.0 0 2
- 1.140012 4 3 ack 40 ------- 1 4.0 0.0 0 2
r 1.685012 4 3 ack 40 ------- 1 4.0 0.0 0 2
+ 1.685012 3 2 ack 40 ------- 1 4.0 0.0 0 2
- 1.685012 3 2 ack 40 ------- 1 4.0 0.0 0 2
r 1.696012 3 5 tcp 1000 ------- 2 1.0 5.0 0 0
+ 1.696012 5 3 ack 40 ------- 2 5.0 1.0 0 3
- 1.696012 5 3 ack 40 ------- 2 5.0 1.0 0 3
r 1.735012 3 2 ack 40 ------- 1 4.0 0.0 0 2
+ 1.735012 2 0 ack 40 ------- 1 4.0 0.0 0 2
- 1.735012 2 0 ack 40 ------- 1 4.0 0.0 0 2
r 2.280012 2 0 ack 40 ------- 1 4.0 0.0 0 2
2.28001  0  0  4  0  ack_ 0
2.28001  0  0  4  0  rtt_ 2.280 
+ 2.280012 0 2 tcp 1000 ------- 1 0.0 4.0 1 4
- 2.280012 0 2 tcp 1000 ------- 1 0.0 4.0 1 4
2.28001  0  0  4  0  maxseq_ 1
r 2.519012 5 3 ack 40 ------- 2 5.0 1.0 0 3
+ 2.519012 3 2 ack 40 ------- 2 5.0 1.0 0 3
- 2.519012 3 2 ack 40 ------- 2 5.0 1.0 0 3
r 2.569012 3 2 ack 40 ------- 2 5.0 1.0 0 3
+ 2.569012 2 1 ack 40 ------- 2 5.0 1.0 0 3
- 2.569012 2 1 ack 40 ------- 2 5.0 1.0 0 3
r 2.825014 0 2 tcp 1000 ------- 1 0.0 4.0 1 4
+ 2.825014 2 3 tcp 1000 ------- 1 0.0 4.0 1 4
- 2.825014 2 3 tcp 1000 ------- 1 0.0 4.0 1 4
r 2.875022 2 3 tcp 1000 ------- 1 0.0 4.0 1 4
+ 2.875022 3 4 tcp 1000 ------- 1 0.0 4.0 1 4
- 2.875022 3 4 tcp 1000 ------- 1 0.0 4.0 1 4
3.00000  1  0  5  0  ssthresh_ 0
3.00000  1  0  5  0  ssthresh_ 2
3.00000  1  0  5  0  cwnd_ 2.000 
+ 3 1 2 tcp 1000 ------- 2 1.0 5.0 0 5
- 3 1 2 tcp 1000 ------- 2 1.0 5.0 0 5
+ 3 1 2 tcp 1000 ------- 2 1.0 5.0 1 6
3.00000  1  0  5  0  maxseq_ 1
- 3.000002 1 2 tcp 1000 ------- 2 1.0 5.0 1 6
r 3.392012 2 1 ack 40 ------- 2 5.0 1.0 0 3
3.39201  1  0  5  0  ack_ 0
3.39201  1  0  5  0  cwnd_ 2.500 
+ 3.392012 1 2 tcp 1000 ------- 2 1.0 5.0 2 7
- 3.392012 1 2 tcp 1000 ------- 2 1.0 5.0 2 7
3.39201  1  0  5  0  maxseq_ 2
r 3.420024 3 4 tcp 1000 ------- 1 0.0 4.0 1 4
+ 3.420024 4 3 ack 40 ------- 1 4.0 0.0 1 8
- 3.420024 4 3 ack 40 ------- 1 4.0 0.0 1 8
r 3.823002 1 2 tcp 1000 ------- 2 1.0 5.0 0 5
+ 3.823002 2 3 tcp 1000 ------- 2 1.0 5.0 0 5
- 3.823002 2 3 tcp 1000 ------- 2 1.0 5.0 0 5
r 3.823004 1 2 tcp 1000 ------- 2 1.0 5.0 1 6
+ 3.823004 2 3 tcp 1000 ------- 2 1.0 5.0 1 6
- 3.82301 2 3 tcp 1000 ------- 2 1.0 5.0 1 6
r 3.87301 2 3 tcp 1000 ------- 2 1.0 5.0 0 5
+ 3.87301 3 5 tcp 1000 ------- 2 1.0 5.0 0 5
- 3.87301 3 5 tcp 1000 ------- 2 1.0 5.0 0 5
r 3.873018 2 3 tcp 1000 ------- 2 1.0 5.0 1 6
+ 3.873018 3 5 tcp 1000 ------- 2 1.0 5.0 1 6
- 3.873018 3 5 tcp 1000 ------- 2 1.0 5.0 1 6
r 3.965025 4 3 ack 40 ------- 1 4.0 0.0 1 8
+ 3.965025 3 2 ack 40 ------- 1 4.0 0.0 1 8
- 3.965025 3 2 ack 40 ------- 1 4.0 0.0 1 8
r 4.015025 3 2 ack 40 ------- 1 4.0 0.0 1 8
+ 4.015025 2 0 ack 40 ------- 1 4.0 0.0 1 8
- 4.015025 2 0 ack 40 ------- 1 4.0 0.0 1 8
r 4.215014 1 2 tcp 1000 ------- 2 1.0 5.0 2 7
+ 4.215014 2 3 tcp 1000 ------- 2 1.0 5.0 2 7
- 4.215014 2 3 tcp 1000 ------- 2 1.0 5.0 2 7
r 4.265022 2 3 tcp 1000 ------- 2 1.0 5.0 2 7
+ 4.265022 3 5 tcp 1000 ------- 2 1.0 5.0 2 7
- 4.265022 3 5 tcp 1000 ------- 2 1.0 5.0 2 7
r 4.560025 2 0 ack 40 ------- 1 4.0 0.0 1 8
4.56002  0  0  4  0  cwnd_ 2.000 
4.56002  0  0  4  0  ack_ 1
4.56002  0  0  4  0  cwnd_ 3.000 
+ 4.560025 0 2 tcp 1000 ------- 1 0.0 4.0 2 9
- 4.560025 0 2 tcp 1000 ------- 1 0.0 4.0 2 9
4.56002  0  0  4  0  maxseq_ 2
+ 4.560025 0 2 tcp 1000 ------- 1 0.0 4.0 3 10
4.56002  0  0  4  0  maxseq_ 3
+ 4.560025 0 2 tcp 1000 ------- 1 0.0 4.0 4 11
4.56002  0  0  4  0  maxseq_ 4
- 4.560027 0 2 tcp 1000 ------- 1 0.0 4.0 3 10
- 4.560029 0 2 tcp 1000 ------- 1 0.0 4.0 4 11
r 4.696012 3 5 tcp 1000 ------- 2 1.0 5.0 0 5
+ 4.696012 5 3 ack 40 ------- 2 5.0 1.0 0 12
- 4.696012 5 3 ack 40 ------- 2 5.0 1.0 0 12
r 4.69602 3 5 tcp 1000 ------- 2 1.0 5.0 1 6
+ 4.69602 5 3 ack 40 ------- 2 5.0 1.0 1 13
- 4.69602 5 3 ack 40 ------- 2 5.0 1.0 1 13
r 5.088024 3 5 tcp 1000 ------- 2 1.0 5.0 2 7
+ 5.088024 5 3 ack 40 ------- 2 5.0 1.0 2 14
- 5.088024 5 3 ack 40 ------- 2 5.0 1.0 2 14
r 5.105027 0 2 tcp 1000 ------- 1 0.0 4.0 2 9
+ 5.105027 2 3 tcp 1000 ------- 1 0.0 4.0 2 9
- 5.105027 2 3 tcp 1000 ------- 1 0.0 4.0 2 9
r 5.105029 0 2 tcp 1000 ------- 1 0.0 4.0 3 10
+ 5.105029 2 3 tcp 1000 ------- 1 0.0 4.0 3 10
r 5.105031 0 2 tcp 1000 ------- 1 0.0 4.0 4 11
+ 5.105031 2 3 tcp 1000 ------- 1 0.0 4.0 4 11
- 5.105035 2 3 tcp 1000 ------- 1 0.0 4.0 3 10
- 5.105043 2 3 tcp 1000 ------- 1 0.0 4.0 4 11
r 5.155035 2 3 tcp 1000 ------- 1 0.0 4.0 2 9
+ 5.155035 3 4 tcp 1000 ------- 1 0.0 4.0 2 9
- 5.155035 3 4 tcp 1000 ------- 1 0.0 4.0 2 9
r 5.155043 2 3 tcp 1000 ------- 1 0.0 4.0 3 10
+ 5.155043 3 4 tcp 1000 ------- 1 0.0 4.0 3 10
- 5.155043 3 4 tcp 1000 ------- 1 0.0 4.0 3 10
r 5.155051 2 3 tcp 1000 ------- 1 0.0 4.0 4 11
+ 5.155051 3 4 tcp 1000 ------- 1 0.0 4.0 4 11
- 5.155051 3 4 tcp 1000 ------- 1 0.0 4.0 4 11
r 5.519012 5 3 ack 40 ------- 2 5.0 1.0 0 12
+ 5.519012 3 2 ack 40 ------- 2 5.0 1.0 0 12
- 5.519012 3 2 ack 40 ------- 2 5.0 1.0 0 12
r 5.51902 5 3 ack 40 ------- 2 5.0 1.0 1 13
+ 5.51902 3 2 ack 40 ------- 2 5.0 1.0 1 13
- 5.51902 3 2 ack 40 ------- 2 5.0 1.0 1 13
r 5.569012 3 2 ack 40 ------- 2 5.0 1.0 0 12
+ 5.569012 2 1 ack 40 ------- 2 5.0 1.0 0 12
- 5.569012 2 1 ack 40 ------- 2 5.0 1.0 0 12
r 5.56902 3 2 ack 40 ------- 2 5.0 1.0 1 13
+ 5.56902 2 1 ack 40 ------- 2 5.0 1.0 1 13
- 5.56902 2 1 ack 40 ------- 2 5.0 1.0 1 13
r 5.700037 3 4 tcp 1000 ------- 1 0.0 4.0 2 9
+ 5.700037 4 3 ack 40 ------- 1 4.0 0.0 2 15
- 5.700037 4 3 ack 40 ------- 1 4.0 0.0 2 15
r 5.700045 3 4 tcp 1000 ------- 1 0.0 4.0 3 10
+ 5.700045 4 3 ack 40 ------- 1 4.0 0.0 3 16
- 5.700045 4 3 ack 40 ------- 1 4.0 0.0 3 16
r 5.700053 3 4 tcp 1000 ------- 1 0.0 4.0 4 11
+ 5.700053 4 3 ack 40 ------- 1 4.0 0.0 4 17
- 5.700053 4 3 ack 40 ------- 1 4.0 0.0 4 17
r 5.911025 5 3 ack 40 ------- 2 5.0 1.0 2 14
+ 5.911025 3 2 ack 40 ------- 2 5.0 1.0 2 14
- 5.911025 3 2 ack 40 ------- 2 5.0 1.0 2 14
r 5.961025 3 2 ack 40 ------- 2 5.0 1.0 2 14
+ 5.961025 2 1 ack 40 ------- 2 5.0 1.0 2 14
- 5.961025 2 1 ack 40 ------- 2 5.0 1.0 2 14
r 6.245037 4 3 ack 40 ------- 1 4.0 0.0 2 15
+ 6.245037 3 2 ack 40 ------- 1 4.0 0.0 2 15
- 6.245037 3 2 ack 40 ------- 1 4.0 0.0 2 15
r 6.245045 4 3 ack 40 ------- 1 4.0 0.0 3 16
+ 6.245045 3 2 ack 40 ------- 1 4.0 0.0 3 16
- 6.245045 3 2 ack 40 ------- 1 4.0 0.0 3 16
r 6.245053 4 3 ack 40 ------- 1 4.0 0.0 4 17
+ 6.245053 3 2 ack 40 ------- 1 4.0 0.0 4 17
- 6.245053 3 2 ack 40 ------- 1 4.0 0.0 4 17
r 6.295037 3 2 ack 40 ------- 1 4.0 0.0 2 15
+ 6.295037 2 0 ack 40 ------- 1 4.0 0.0 2 15
- 6.295037 2 0 ack 40 ------- 1 4.0 0.0 2 15
r 6.295045 3 2 ack 40 ------- 1 4.0 0.0 3 16
+ 6.295045 2 0 ack 40 ------- 1 4.0 0.0 3 16
- 6.295045 2 0 ack 40 ------- 1 4.0 0.0 3 16
r 6.295053 3 2 ack 40 ------- 1 4.0 0.0 4 17
+ 6.295053 2 0 ack 40 ------- 1 4.0 0.0 4 17
- 6.295053 2 0 ack 40 ------- 1 4.0 0.0 4 17
r 6.392012 2 1 ack 40 ------- 2 5.0 1.0 0 12
r 6.39202 2 1 ack 40 ------- 2 5.0 1.0 1 13
6.39202  1  0  5  0  cwnd_ 2.000 
6.39202  1  0  5  0  ack_ 1
6.39202  1  0  5  0  rtt_ 3.390 
6.39202  1  0  5  0  cwnd_ 2.500 
+ 6.39202 1 2 tcp 1000 ------- 2 1.0 5.0 3 18
- 6.39202 1 2 tcp 1000 ------- 2 1.0 5.0 3 18
6.39202  1  0  5  0  maxseq_ 3
r 6.784025 2 1 ack 40 ------- 2 5.0 1.0 2 14
6.78402  1  0  5  0  ack_ 2
+ 6.784025 1 2 tcp 1000 ------- 2 1.0 5.0 4 19
- 6.784025 1 2 tcp 1000 ------- 2 1.0 5.0 4 19
6.78402  1  0  5  0  maxseq_ 4
r 6.840037 2 0 ack 40 ------- 1 4.0 0.0 2 15
6.84004  0  0  4  0  ack_ 2
+ 6.840037 0 2 tcp 1000 ------- 1 0.0 4.0 5 20
- 6.840037 0 2 tcp 1000 ------- 1 0.0 4.0 5 20
6.84004  0  0  4  0  maxseq_ 5
r 6.840045 2 0 ack 40 ------- 1 4.0 0.0 3 16
6.84005  0  0  4  0  ack_ 3
+ 6.840045 0 2 tcp 1000 ------- 1 0.0 4.0 6 21
- 6.840045 0 2 tcp 1000 ------- 1 0.0 4.0 6 21
6.84005  0  0  4  0  maxseq_ 6
r 6.840053 2 0 ack 40 ------- 1 4.0 0.0 4 17
6.84005  0  0  4  0  ack_ 4
+ 6.840053 0 2 tcp 1000 ------- 1 0.0 4.0 7 22
- 6.840053 0 2 tcp 1000 ------- 1 0.0 4.0 7 22
6.84005  0  0  4  0  maxseq_ 7
r 7.215022 1 2 tcp 1000 ------- 2 1.0 5.0 3 18
+ 7.215022 2 3 tcp 1000 ------- 2 1.0 5.0 3 18
- 7.215022 2 3 tcp 1000 ------- 2 1.0 5.0 3 18
r 7.26503 2 3 tcp 1000 ------- 2 1.0 5.0 3 18
+ 7.26503 3 5 tcp 1000 ------- 2 1.0 5.0 3 18
- 7.26503 3 5 tcp 1000 ------- 2 1.0 5.0 3 18
r 7.385039 0 2 tcp 1000 ------- 1 0.0 4.0 5 20
+ 7.385039 2 3 tcp 1000 ------- 1 0.0 4.0 5 20
- 7.385039 2 3 tcp 1000 ------- 1 0.0 4.0 5 20
r 7.385047 0 2 tcp 1000 ------- 1 0.0 4.0 6 21
+ 7.385047 2 3 tcp 1000 ------- 1 0.0 4.0 6 21
- 7.385047 2 3 tcp 1000 ------- 1 0.0 4.0 6 21
r 7.385055 0 2 tcp 1000 ------- 1 0.0 4.0 7 22
+ 7.385055 2 3 tcp 1000 ------- 1 0.0 4.0 7 22
- 7.385055 2 3 tcp 1000 ------- 1 0.0 4.0 7 22
r 7.435047 2 3 tcp 1000 ------- 1 0.0 4.0 5 20
+ 7.435047 3 4 tcp 1000 ------- 1 0.0 4.0 5 20
- 7.435047 3 4 tcp 1000 ------- 1 0.0 4.0 5 20
r 7.435055 2 3 tcp 1000 ------- 1 0.0 4.0 6 21
+ 7.435055 3 4 tcp 1000 ------- 1 0.0 4.0 6 21
- 7.435055 3 4 tcp 1000 ------- 1 0.0 4.0 6 21
r 7.435063 2 3 tcp 1000 ------- 1 0.0 4.0 7 22
+ 7.435063 3 4 tcp 1000 ------- 1 0.0 4.0 7 22
- 7.435063 3 4 tcp 1000 ------- 1 0.0 4.0 7 22
r 7.607027 1 2 tcp 1000 ------- 2 1.0 5.0 4 19
+ 7.607027 2 3 tcp 1000 ------- 2 1.0 5.0 4 19
- 7.607027 2 3 tcp 1000 ------- 2 1.0 5.0 4 19
r 7.657035 2 3 tcp 1000 ------- 2 1.0 5.0 4 19
+ 7.657035 3 5 tcp 1000 ------- 2 1.0 5.0 4 19
- 7.657035 3 5 tcp 1000 ------- 2 1.0 5.0 4 19
r 7.980049 3 4 tcp 1000 ------- 1 0.0 4.0 5 20
+ 7.980049 4 3 ack 40 ------- 1 4.0 0.0 5 23
- 7.980049 4 3 ack 40 ------- 1 4.0 0.0 5 23
r 7.980057 3 4 tcp 1000 ------- 1 0.0 4.0 6 21
+ 7.980057 4 3 ack 40 ------- 1 4.0 0.0 6 24
- 7.980057 4 3 ack 40 ------- 1 4.0 0.0 6 24
r 7.980065 3 4 tcp 1000 ------- 1 0.0 4.0 7 22
+ 7.980065 4 3 ack 40 ------- 1 4.0 0.0 7 25
- 7.980065 4 3 ack 40 ------- 1 4.0 0.0 7 25
r 8.088032 3 5 tcp 1000 ------- 2 1.0 5.0 3 18
+ 8.088032 5 3 ack 40 ------- 2 5.0 1.0 3 26
- 8.088032 5 3 ack 40 ------- 2 5.0 1.0 3 26
r 8.480037 3 5 tcp 1000 ------- 2 1.0 5.0 4 19
+ 8.480037 5 3 ack 40 ------- 2 5.0 1.0 4 27
- 8.480037 5 3 ack 40 ------- 2 5.0 1.0 4 27
r 8.52505 4 3 ack 40 ------- 1 4.0 0.0 5 23
+ 8.52505 3 2 ack 40 ------- 1 4.0 0.0 5 23
- 8.52505 3 2 ack 40 ------- 1 4.0 0.0 5 23
r 8.525058 4 3 ack 40 ------- 1 4.0 0.0 6 24
+ 8.525058 3 2 ack 40 ------- 1 4.0 0.0 6 24
- 8.525058 3 2 ack 40 ------- 1 4.0 0.0 6 24
r 8.525066 4 3 ack 40 ------- 1 4.0 0.0 7 25
+ 8.525066 3 2 ack 40 ------- 1 4.0 0.0 7 25
- 8.525066 3 2 ack 40 ------- 1 4.0 0.0 7 25
r 8.57505 3 2 ack 40 ------- 1 4.0 0.0 5 23
+ 8.57505 2 0 ack 40 ------- 1 4.0 0.0 5 23
- 8.57505 2 0 ack 40 ------- 1 4.0 0.0 5 23
r 8.575058 3 2 ack 40 ------- 1 4.0 0.0 6 24
+ 8.575058 2 0 ack 40 ------- 1 4.0 0.0 6 24
- 8.575058 2 0 ack 40 ------- 1 4.0 0.0 6 24
r 8.575066 3 2 ack 40 ------- 1 4.0 0.0 7 25
+ 8.575066 2 0 ack 40 ------- 1 4.0 0.0 7 25
- 8.575066 2 0 ack 40 ------- 1 4.0 0.0 7 25
r 8.911033 5 3 ack 40 ------- 2 5.0 1.0 3 26
+ 8.911033 3 2 ack 40 ------- 2 5.0 1.0 3 26
- 8.911033 3 2 ack 40 ------- 2 5.0 1.0 3 26
r 8.961033 3 2 ack 40 ------- 2 5.0 1.0 3 26
+ 8.961033 2 1 ack 40 ------- 2 5.0 1.0 3 26
- 8.961033 2 1 ack 40 ------- 2 5.0 1.0 3 26
r 9.12005 2 0 ack 40 ------- 1 4.0 0.0 5 23
9.12005  0  0  4  0  ack_ 5
9.12005  0  0  4  0  cwnd_ 4.000 
+ 9.12005 0 2 tcp 1000 ------- 1 0.0 4.0 8 28
- 9.12005 0 2 tcp 1000 ------- 1 0.0 4.0 8 28
9.12005  0  0  4  0  maxseq_ 8
+ 9.12005 0 2 tcp 1000 ------- 1 0.0 4.0 9 29
9.12005  0  0  4  0  maxseq_ 9
- 9.120052 0 2 tcp 1000 ------- 1 0.0 4.0 9 29
r 9.120058 2 0 ack 40 ------- 1 4.0 0.0 6 24
9.12006  0  0  4  0  ack_ 6
9.12006  0  0  4  0  cwnd_ 5.000 
+ 9.120058 0 2 tcp 1000 ------- 1 0.0 4.0 10 30
- 9.120058 0 2 tcp 1000 ------- 1 0.0 4.0 10 30
9.12006  0  0  4  0  maxseq_ 10
+ 9.120058 0 2 tcp 1000 ------- 1 0.0 4.0 11 31
9.12006  0  0  4  0  maxseq_ 11
- 9.12006 0 2 tcp 1000 ------- 1 0.0 4.0 11 31
r 9.120066 2 0 ack 40 ------- 1 4.0 0.0 7 25
9.12007  0  0  4  0  ack_ 7
9.12007  0  0  4  0  cwnd_ 6.000 
+ 9.120066 0 2 tcp 1000 ------- 1 0.0 4.0 12 32
- 9.120066 0 2 tcp 1000 ------- 1 0.0 4.0 12 32
9.12007  0  0  4  0  maxseq_ 12
+ 9.120066 0 2 tcp 1000 ------- 1 0.0 4.0 13 33
9.12007  0  0  4  0  maxseq_ 13
- 9.120068 0 2 tcp 1000 ------- 1 0.0 4.0 13 33
r 9.303037 5 3 ack 40 ------- 2 5.0 1.0 4 27
+ 9.303037 3 2 ack 40 ------- 2 5.0 1.0 4 27
- 9.303037 3 2 ack 40 ------- 2 5.0 1.0 4 27
r 9.353037 3 2 ack 40 ------- 2 5.0 1.0 4 27
+ 9.353037 2 1 ack 40 ------- 2 5.0 1.0 4 27
- 9.353037 2 1 ack 40 ------- 2 5.0 1.0 4 27
r 9.665052 0 2 tcp 1000 ------- 1 0.0 4.0 8 28
+ 9.665052 2 3 tcp 1000 ------- 1 0.0 4.0 8 28
- 9.665052 2 3 tcp 1000 ------- 1 0.0 4.0 8 28
r 9.665054 0 2 tcp 1000 ------- 1 0.0 4.0 9 29
+ 9.665054 2 3 tcp 1000 ------- 1 0.0 4.0 9 29
- 9.66506 2 3 tcp 1000 ------- 1 0.0 4.0 9 29
r 9.66506 0 2 tcp 1000 ------- 1 0.0 4.0 10 30
+ 9.66506 2 3 tcp 1000 ------- 1 0.0 4.0 10 30
r 9.665062 0 2 tcp 1000 ------- 1 0.0 4.0 11 31
+ 9.665062 2 3 tcp 1000 ------- 1 0.0 4.0 11 31
- 9.665068 2 3 tcp 1000 ------- 1 0.0 4.0 10 30
r 9.665068 0 2 tcp 1000 ------- 1 0.0 4.0 12 32
+ 9.665068 2 3 tcp 1000 ------- 1 0.0 4.0 12 32
r 9.66507 0 2 tcp 1000 ------- 1 0.0 4.0 13 33
+ 9.66507 2 3 tcp 1000 ------- 1 0.0 4.0 13 33
- 9.665076 2 3 tcp 1000 ------- 1 0.0 4.0 11 31
- 9.665084 2 3 tcp 1000 ------- 1 0.0 4.0 12 32
- 9.665092 2 3 tcp 1000 ------- 1 0.0 4.0 13 33
r 9.71506 2 3 tcp 1000 ------- 1 0.0 4.0 8 28
+ 9.71506 3 4 tcp 1000 ------- 1 0.0 4.0 8 28
- 9.71506 3 4 tcp 1000 ------- 1 0.0 4.0 8 28
r 9.715068 2 3 tcp 1000 ------- 1 0.0 4.0 9 29
+ 9.715068 3 4 tcp 1000 ------- 1 0.0 4.0 9 29
- 9.715068 3 4 tcp 1000 ------- 1 0.0 4.0 9 29
r 9.715076 2 3 tcp 1000 ------- 1 0.0 4.0 10 30
+ 9.715076 3 4 tcp 1000 ------- 1 0.0 4.0 10 30
- 9.715076 3 4 tcp 1000 ------- 1 0.0 4.0 10 30
r 9.715084 2 3 tcp 1000 ------- 1 0.0 4.0 11 31
+ 9.715084 3 4 tcp 1000 ------- 1 0.0 4.0 11 31
- 9.715084 3 4 tcp 1000 ------- 1 0.0 4.0 11 31
r 9.715092 2 3 tcp 1000 ------- 1 0.0 4.0 12 32
+ 9.715092 3 4 tcp 1000 ------- 1 0.0 4.0 12 32
- 9.715092 3 4 tcp 1000 ------- 1 0.0 4.0 12 32
r 9.7151 2 3 tcp 1000 ------- 1 0.0 4.0 13 33
+ 9.7151 3 4 tcp 1000 ------- 1 0.0 4.0 13 33
- 9.7151 3 4 tcp 1000 ------- 1 0.0 4.0 13 33
r 9.784033 2 1 ack 40 ------- 2 5.0 1.0 3 26
9.78403  1  0  5  0  ack_ 3
+ 9.784033 1 2 tcp 1000 ------- 2 1.0 5.0 5 34
- 9.784033 1 2 tcp 1000 ------- 2 1.0 5.0 5 34
9.78403  1  0  5  0  maxseq_ 5
r 10.176037 2 1 ack 40 ------- 2 5.0 1.0 4 27
10.17604 1  0  5  0  ack_ 4
+ 10.176037 1 2 tcp 1000 ------- 2 1.0 5.0 6 35
- 10.176037 1 2 tcp 1000 ------- 2 1.0 5.0 6 35
10.17604 1  0  5  0  maxseq_ 6
r 10.260062 3 4 tcp 1000 ------- 1 0.0 4.0 8 28
+ 10.260062 4 3 ack 40 ------- 1 4.0 0.0 8 36
- 10.260062 4 3 ack 40 ------- 1 4.0 0.0 8 36
r 10.26007 3 4 tcp 1000 ------- 1 0.0 4.0 9 29
+ 10.26007 4 3 ack 40 ------- 1 4.0 0.0 9 37
- 10.26007 4 3 ack 40 ------- 1 4.0 0.0 9 37
r 10.260078 3 4 tcp 1000 ------- 1 0.0 4.0 10 30
+ 10.260078 4 3 ack 40 ------- 1 4.0 0.0 10 38
- 10.260078 4 3 ack 40 ------- 1 4.0 0.0 10 38
r 10.260086 3 4 tcp 1000 ------- 1 0.0 4.0 11 31
+ 10.260086 4 3 ack 40 ------- 1 4.0 0.0 11 39
- 10.260086 4 3 ack 40 ------- 1 4.0 0.0 11 39
r 10.260094 3 4 tcp 1000 ------- 1 0.0 4.0 12 32
+ 10.260094 4 3 ack 40 ------- 1 4.0 0.0 12 40
- 10.260094 4 3 ack 40 ------- 1 4.0 0.0 12 40
r 10.260102 3 4 tcp 1000 ------- 1 0.0 4.0 13 33
+ 10.260102 4 3 ack 40 ------- 1 4.0 0.0 13 41
- 10.260102 4 3 ack 40 ------- 1 4.0 0.0 13 41
r 10.607035 1 2 tcp 1000 ------- 2 1.0 5.0 5 34
+ 10.607035 2 3 tcp 1000 ------- 2 1.0 5.0 5 34
- 10.607035 2 3 tcp 1000 ------- 2 1.0 5.0 5 34
r 10.657043 2 3 tcp 1000 ------- 2 1.0 5.0 5 34
+ 10.657043 3 5 tcp 1000 ------- 2 1.0 5.0 5 34
- 10.657043 3 5 tcp 1000 ------- 2 1.0 5.0 5 34
r 10.805062 4 3 ack 40 ------- 1 4.0 0.0 8 36
+ 10.805062 3 2 ack 40 ------- 1 4.0 0.0 8 36
- 10.805062 3 2 ack 40 ------- 1 4.0 0.0 8 36
r 10.80507 4 3 ack 40 ------- 1 4.0 0.0 9 37
+ 10.80507 3 2 ack 40 ------- 1 4.0 0.0 9 37
- 10.80507 3 2 ack 40 ------- 1 4.0 0.0 9 37
r 10.805078 4 3 ack 40 ------- 1 4.0 0.0 10 38
+ 10.805078 3 2 ack 40 ------- 1 4.0 0.0 10 38
- 10.805078 3 2 ack 40 ------- 1 4.0 0.0 10 38
r 10.805086 4 3 ack 40 ------- 1 4.0 0.0 11 39
+ 10.805086 3 2 ack 40 ------- 1 4.0 0.0 11 39
- 10.805086 3 2 ack 40 ------- 1 4.0 0.0 11 39
r 10.805094 4 3 ack 40 ------- 1 4.0 0.0 12 40
+ 10.805094 3 2 ack 40 ------- 1 4.0 0.0 12 40
- 10.805094 3 2 ack 40 ------- 1 4.0 0.0 12 40
r 10.805102 4 3 ack 40 ------- 1 4.0 0.0 13 41
+ 10.805102 3 2 ack 40 ------- 1 4.0 0.0 13 41
- 10.805102 3 2 ack 40 ------- 1 4.0 0.0 13 41
r 10.855062 3 2 ack 40 ------- 1 4.0 0.0 8 36
+ 10.855062 2 0 ack 40 ------- 1 4.0 0.0 8 36
- 10.855062 2 0 ack 40 ------- 1 4.0 0.0 8 36
r 10.85507 3 2 ack 40 ------- 1 4.0 0.0 9 37
+ 10.85507 2 0 ack 40 ------- 1 4.0 0.0 9 37
- 10.85507 2 0 ack 40 ------- 1 4.0 0.0 9 37
r 10.855078 3 2 ack 40 ------- 1 4.0 0.0 10 38
+ 10.855078 2 0 ack 40 ------- 1 4.0 0.0 10 38
- 10.855078 2 0 ack 40 ------- 1 4.0 0.0 10 38
r 10.855086 3 2 ack 40 ------- 1 4.0 0.0 11 39
+ 10.855086 2 0 ack 40 ------- 1 4.0 0.0 11 39
- 10.855086 2 0 ack 40 ------- 1 4.0 0.0 11 39
r 10.855094 3 2 ack 40 ------- 1 4.0 0.0 12 40
+ 10.855094 2 0 ack 40 ------- 1 4.0 0.0 12 40
- 10.855094 2 0 ack 40 ------- 1 4.0 0.0 12 40
r 10.855102 3 2 ack 40 ------- 1 4.0 0.0 13 41
+ 10.855102 2 0 ack 40 ------- 1 4.0 0.0 13 41
- 10.855102 2 0 ack 40 ------- 1 4.0 0.0 13 41
r 10.999039 1 2 tcp 1000 ------- 2 1.0 5.0 6 35
+ 10.999039 2 3 tcp 1000 ------- 2 1.0 5.0 6 35
- 10.999039 2 3 tcp 1000 ------- 2 1.0 5.0 6 35
r 11.049047 2 3 tcp 1000 ------- 2 1.0 5.0 6 35
+ 11.049047 3 5 tcp 1000 ------- 2 1.0 5.0 6 35
- 11.049047 3 5 tcp 1000 ------- 2 1.0 5.0 6 35
r 11.400062 2 0 ack 40 ------- 1 4.0 0.0 8 36
11.40006 0  0  4  0  ack_ 8
+ 11.400062 0 2 tcp 1000 ------- 1 0.0 4.0 14 42
- 11.400062 0 2 tcp 1000 ------- 1 0.0 4.0 14 42
11.40006 0  0  4  0  maxseq_ 14
r 11.40007 2 0 ack 40 ------- 1 4.0 0.0 9 37
11.40007 0  0  4  0  ack_ 9
+ 11.40007 0 2 tcp 1000 ------- 1 0.0 4.0 15 43
- 11.40007 0 2 tcp 1000 ------- 1 0.0 4.0 15 43
11.40007 0  0  4  0  maxseq_ 15
r 11.400078 2 0 ack 40 ------- 1 4.0 0.0 10 38
11.40008 0  0  4  0  ack_ 10
+ 11.400078 0 2 tcp 1000 ------- 1 0.0 4.0 16 44
- 11.400078 0 2 tcp 1000 ------- 1 0.0 4.0 16 44
11.40008 0  0  4  0  maxseq_ 16
r 11.400086 2 0 ack 40 ------- 1 4.0 0.0 11 39
11.40009 0  0  4  0  ack_ 11
+ 11.400086 0 2 tcp 1000 ------- 1 0.0 4.0 17 45
- 11.400086 0 2 tcp 1000 ------- 1 0.0 4.0 17 45
11.40009 0  0  4  0  maxseq_ 17
r 11.400094 2 0 ack 40 ------- 1 4.0 0.0 12 40
11.40009 0  0  4  0  ack_ 12
+ 11.400094 0 2 tcp 1000 ------- 1 0.0 4.0 18 46
- 11.400094 0 2 tcp 1000 ------- 1 0.0 4.0 18 46
11.40009 0  0  4  0  maxseq_ 18
r 11.400102 2 0 ack 40 ------- 1 4.0 0.0 13 41
11.40010 0  0  4  0  ack_ 13
+ 11.400102 0 2 tcp 1000 ------- 1 0.0 4.0 19 47
- 11.400102 0 2 tcp 1000 ------- 1 0.0 4.0 19 47
11.40010 0  0  4  0  maxseq_ 19
r 11.480045 3 5 tcp 1000 ------- 2 1.0 5.0 5 34
+ 11.480045 5 3 ack 40 ------- 2 5.0 1.0 5 48
- 11.480045 5 3 ack 40 ------- 2 5.0 1.0 5 48
r 11.872049 3 5 tcp 1000 ------- 2 1.0 5.0 6 35
+ 11.872049 5 3 ack 40 ------- 2 5.0 1.0 6 49
- 11.872049 5 3 ack 40 ------- 2 5.0 1.0 6 49
r 11.945064 0 2 tcp 1000 ------- 1 0.0 4.0 14 42
+ 11.945064 2 3 tcp 1000 ------- 1 0.0 4.0 14 42
- 11.945064 2 3 tcp 1000 ------- 1 0.0 4.0 14 42
r 11.945072 0 2 tcp 1000 ------- 1 0.0 4.0 15 43
+ 11.945072 2 3 tcp 1000 ------- 1 0.0 4.0 15 43
- 11.945072 2 3 tcp 1000 ------- 1 0.0 4.0 15 43
r 11.94508 0 2 tcp 1000 ------- 1 0.0 4.0 16 44
+ 11.94508 2 3 tcp 1000 ------- 1 0.0 4.0 16 44
- 11.94508 2 3 tcp 1000 ------- 1 0.0 4.0 16 44
r 11.945088 0 2 tcp 1000 ------- 1 0.0 4.0 17 45
+ 11.945088 2 3 tcp 1000 ------- 1 0.0 4.0 17 45
- 11.945088 2 3 tcp 1000 ------- 1 0.0 4.0 17 45
r 11.945096 0 2 tcp 1000 ------- 1 0.0 4.0 18 46
+ 11.945096 2 3 tcp 1000 ------- 1 0.0 4.0 18 46
- 11.945096 2 3 tcp 1000 ------- 1 0.0 4.0 18 46
r 11.945104 0 2 tcp 1000 ------- 1 0.0 4.0 19 47
+ 11.945104 2 3 tcp 1000 ------- 1 0.0 4.0 19 47
- 11.945104 2 3 tcp 1000 ------- 1 0.0 4.0 19 47
r 11.995072 2 3 tcp 1000 ------- 1 0.0 4.0 14 42
+ 11.995072 3 4 tcp 1000 ------- 1 0.0 4.0 14 42
- 11.995072 3 4 tcp 1000 ------- 1 0.0 4.0 14 42
r 11.99508 2 3 tcp 1000 ------- 1 0.0 4.0 15 43
+ 11.99508 3 4 tcp 1000 ------- 1 0.0 4.0 15 43
- 11.99508 3 4 tcp 1000 ------- 1 0.0 4.0 15 43
r 11.995088 2 3 tcp 1000 ------- 1 0.0 4.0 16 44
+ 11.995088 3 4 tcp 1000 ------- 1 0.0 4.0 16 44
- 11.995088 3 4 tcp 1000 ------- 1 0.0 4.0 16 44
r 11.995096 2 3 tcp 1000 ------- 1 0.0 4.0 17 45
+ 11.995096 3 4 tcp 1000 ------- 1 0.0 4.0 17 45
- 11.995096 3 4 tcp 1000 ------- 1 0.0 4.0 17 45
r 11.995104 2 3 tcp 1000 ------- 1 0.0 4.0 18 46
+ 11.995104 3 4 tcp 1000 ------- 1 0.0 4.0 18 46
- 11.995104 3 4 tcp 1000 ------- 1 0.0 4.0 18 46
r 11.995112 2 3 tcp 1000 ------- 1 0.0 4.0 19 47
+ 11.995112 3 4 tcp 1000 ------- 1 0.0 4.0 19 47
- 11.995112 3 4 tcp 1000 ------- 1 0.0 4.0 19 47
r 12.303045 5 3 ack 40 ------- 2 5.0 1.0 5 48
+ 12.303045 3 2 ack 40 ------- 2 5.0 1.0 5 48
- 12.303045 3 2 ack 40 ------- 2 5.0 1.0 5 48
r 12.353045 3 2 ack 40 ------- 2 5.0 1.0 5 48
+ 12.353045 2 1 ack 40 ------- 2 5.0 1.0 5 48
- 12.353045 2 1 ack 40 ------- 2 5.0 1.0 5 48
r 12.540074 3 4 tcp 1000 ------- 1 0.0 4.0 14 42
+ 12.540074 4 3 ack 40 ------- 1 4.0 0.0 14 50
- 12.540074 4 3 ack 40 ------- 1 4.0 0.0 14 50
r 12.540082 3 4 tcp 1000 ------- 1 0.0 4.0 15 43
+ 12.540082 4 3 ack 40 ------- 1 4.0 0.0 15 51
- 12.540082 4 3 ack 40 ------- 1 4.0 0.0 15 51
r 12.54009 3 4 tcp 1000 ------- 1 0.0 4.0 16 44
+ 12.54009 4 3 ack 40 ------- 1 4.0 0.0 16 52
- 12.54009 4 3 ack 40 ------- 1 4.0 0.0 16 52
r 12.540098 3 4 tcp 1000 ------- 1 0.0 4.0 17 45
+ 12.540098 4 3 ack 40 ------- 1 4.0 0.0 17 53
- 12.540098 4 3 ack 40 ------- 1 4.0 0.0 17 53
r 12.540106 3 4 tcp 1000 ------- 1 0.0 4.0 18 46
+ 12.540106 4 3 ack 40 ------- 1 4.0 0.0 18 54
- 12.540106 4 3 ack 40 ------- 1 4.0 0.0 18 54
r 12.540114 3 4 tcp 1000 ------- 1 0.0 4.0 19 47
+ 12.540114 4 3 ack 40 ------- 1 4.0 0.0 19 55
- 12.540114 4 3 ack 40 ------- 1 4.0 0.0 19 55
r 12.69505 5 3 ack 40 ------- 2 5.0 1.0 6 49
+ 12.69505 3 2 ack 40 ------- 2 5.0 1.0 6 49
- 12.69505 3 2 ack 40 ------- 2 5.0 1.0 6 49
r 12.74505 3 2 ack 40 ------- 2 5.0 1.0 6 49
+ 12.74505 2 1 ack 40 ------- 2 5.0 1.0 6 49
- 12.74505 2 1 ack 40 ------- 2 5.0 1.0 6 49
r 13.085074 4 3 ack 40 ------- 1 4.0 0.0 14 50
+ 13.085074 3 2 ack 40 ------- 1 4.0 0.0 14 50
- 13.085074 3 2 ack 40 ------- 1 4.0 0.0 14 50
r 13.085082 4 3 ack 40 ------- 1 4.0 0.0 15 51
+ 13.085082 3 2 ack 40 ------- 1 4.0 0.0 15 51
- 13.085082 3 2 ack 40 ------- 1 4.0 0.0 15 51
r 13.08509 4 3 ack 40 ------- 1 4.0 0.0 16 52
+ 13.08509 3 2 ack 40 ------- 1 4.0 0.0 16 52
- 13.08509 3 2 ack 40 ------- 1 4.0 0.0 16 52
r 13.085098 4 3 ack 40 ------- 1 4.0 0.0 17 53
+ 13.085098 3 2 ack 40 ------- 1 4.0 0.0 17 53
- 13.085098 3 2 ack 40 ------- 1 4.0 0.0 17 53
r 13.085106 4 3 ack 40 ------- 1 4.0 0.0 18 54
+ 13.085106 3 2 ack 40 ------- 1 4.0 0.0 18 54
- 13.085106 3 2 ack 40 ------- 1 4.0 0.0 18 54
r 13.085114 4 3 ack 40 ------- 1 4.0 0.0 19 55
+ 13.085114 3 2 ack 40 ------- 1 4.0 0.0 19 55
- 13.085114 3 2 ack 40 ------- 1 4.0 0.0 19 55
r 13.135075 3 2 ack 40 ------- 1 4.0 0.0 14 50
+ 13.135075 2 0 ack 40 ------- 1 4.0 0.0 14 50
- 13.135075 2 0 ack 40 ------- 1 4.0 0.0 14 50
r 13.135083 3 2 ack 40 ------- 1 4.0 0.0 15 51
+ 13.135083 2 0 ack 40 ------- 1 4.0 0.0 15 51
- 13.135083 2 0 ack 40 ------- 1 4.0 0.0 15 51
r 13.135091 3 2 ack 40 ------- 1 4.0 0.0 16 52
+ 13.135091 2 0 ack 40 ------- 1 4.0 0.0 16 52
- 13.135091 2 0 ack 40 ------- 1 4.0 0.0 16 52
r 13.135099 3 2 ack 40 ------- 1 4.0 0.0 17 53
+ 13.135099 2 0 ack 40 ------- 1 4.0 0.0 17 53
- 13.135099 2 0 ack 40 ------- 1 4.0 0.0 17 53
r 13.135107 3 2 ack 40 ------- 1 4.0 0.0 18 54
+ 13.135107 2 0 ack 40 ------- 1 4.0 0.0 18 54
- 13.135107 2 0 ack 40 ------- 1 4.0 0.0 18 54
r 13.135115 3 2 ack 40 ------- 1 4.0 0.0 19 55
+ 13.135115 2 0 ack 40 ------- 1 4.0 0.0 19 55
- 13.135115 2 0 ack 40 ------- 1 4.0 0.0 19 55
r 13.176045 2 1 ack 40 ------- 2 5.0 1.0 5 48
13.17605 1  0  5  0  ack_ 5
13.17605 1  0  5  0  rtt_ 3.400 
+ 13.176045 1 2 tcp 1000 ------- 2 1.0 5.0 7 56
- 13.176045 1 2 tcp 1000 ------- 2 1.0 5.0 7 56
13.17605 1  0  5  0  maxseq_ 7
r 13.56805 2 1 ack 40 ------- 2 5.0 1.0 6 49
13.56805 1  0  5  0  ack_ 6
+ 13.56805 1 2 tcp 1000 ------- 2 1.0 5.0 8 57
- 13.56805 1 2 tcp 1000 ------- 2 1.0 5.0 8 57
13.56805 1  0  5  0  maxseq_ 8
r 13.680075 2 0 ack 40 ------- 1 4.0 0.0 14 50
13.68007 0  0  4  0  ack_ 14
13.68007 0  0  4  0  cwnd_ 7.000 
+ 13.680075 0 2 tcp 1000 ------- 1 0.0 4.0 20 58
- 13.680075 0 2 tcp 1000 ------- 1 0.0 4.0 20 58
13.68007 0  0  4  0  maxseq_ 20
+ 13.680075 0 2 tcp 1000 ------- 1 0.0 4.0 21 59
13.68007 0  0  4  0  maxseq_ 21
- 13.680077 0 2 tcp 1000 ------- 1 0.0 4.0 21 59
r 13.680083 2 0 ack 40 ------- 1 4.0 0.0 15 51
13.68008 0  0  4  0  ack_ 15
13.68008 0  0  4  0  cwnd_ 8.000 
+ 13.680083 0 2 tcp 1000 ------- 1 0.0 4.0 22 60
- 13.680083 0 2 tcp 1000 ------- 1 0.0 4.0 22 60
13.68008 0  0  4  0  maxseq_ 22
+ 13.680083 0 2 tcp 1000 ------- 1 0.0 4.0 23 61
13.68008 0  0  4  0  maxseq_ 23
- 13.680085 0 2 tcp 1000 ------- 1 0.0 4.0 23 61
r 13.680091 2 0 ack 40 ------- 1 4.0 0.0 16 52
13.68009 0  0  4  0  ack_ 16
13.68009 0  0  4  0  cwnd_ 9.000 
+ 13.680091 0 2 tcp 1000 ------- 1 0.0 4.0 24 62
- 13.680091 0 2 tcp 1000 ------- 1 0.0 4.0 24 62
13.68009 0  0  4  0  maxseq_ 24
+ 13.680091 0 2 tcp 1000 ------- 1 0.0 4.0 25 63
13.68009 0  0  4  0  maxseq_ 25
- 13.680093 0 2 tcp 1000 ------- 1 0.0 4.0 25 63
r 13.680099 2 0 ack 40 ------- 1 4.0 0.0 17 53
13.68010 0  0  4  0  ack_ 17
13.68010 0  0  4  0  cwnd_ 10.000
+ 13.680099 0 2 tcp 1000 ------- 1 0.0 4.0 26 64
- 13.680099 0 2 tcp 1000 ------- 1 0.0 4.0 26 64
13.68010 0  0  4  0  maxseq_ 26
+ 13.680099 0 2 tcp 1000 ------- 1 0.0 4.0 27 65
13.68010 0  0  4  0  maxseq_ 27
- 13.680101 0 2 tcp 1000 ------- 1 0.0 4.0 27 65
r 13.680107 2 0 ack 40 ------- 1 4.0 0.0 18 54
13.68011 0  0  4  0  ack_ 18
13.68011 0  0  4  0  cwnd_ 11.000
+ 13.680107 0 2 tcp 1000 ------- 1 0.0 4.0 28 66
- 13.680107 0 2 tcp 1000 ------- 1 0.0 4.0 28 66
13.68011 0  0  4  0  maxseq_ 28
+ 13.680107 0 2 tcp 1000 ------- 1 0.0 4.0 29 67
13.68011 0  0  4  0  maxseq_ 29
- 13.680109 0 2 tcp 1000 ------- 1 0.0 4.0 29 67
r 13.680115 2 0 ack 40 ------- 1 4.0 0.0 19 55
13.68011 0  0  4  0  ack_ 19
13.68011 0  0  4  0  cwnd_ 12.000
+ 13.680115 0 2 tcp 1000 ------- 1 0.0 4.0 30 68
- 13.680115 0 2 tcp 1000 ------- 1 0.0 4.0 30 68
13.68011 0  0  4  0  maxseq_ 30
+ 13.680115 0 2 tcp 1000 ------- 1 0.0 4.0 31 69
13.68011 0  0  4  0  maxseq_ 31
- 13.680117 0 2 tcp 1000 ------- 1 0.0 4.0 31 69
r 13.999047 1 2 tcp 1000 ------- 2 1.0 5.0 7 56
+ 13.999047 2 3 tcp 1000 ------- 2 1.0 5.0 7 56
- 13.999047 2 3 tcp 1000 ------- 2 1.0 5.0 7 56
r 14.049055 2 3 tcp 1000 ------- 2 1.0 5.0 7 56
+ 14.049055 3 5 tcp 1000 ------- 2 1.0 5.0 7 56
- 14.049055 3 5 tcp 1000 ------- 2 1.0 5.0 7 56
r 14.225077 0 2 tcp 1000 ------- 1 0.0 4.0 20 58
+ 14.225077 2 3 tcp 1000 ------- 1 0.0 4.0 20 58
- 14.225077 2 3 tcp 1000 ------- 1 0.0 4.0 20 58
r 14.225079 0 2 tcp 1000 ------- 1 0.0 4.0 21 59
+ 14.225079 2 3 tcp 1000 ------- 1 0.0 4.0 21 59
r 14.225085 0 2 tcp 1000 ------- 1 0.0 4.0 22 60
+ 14.225085 2 3 tcp 1000 ------- 1 0.0 4.0 22 60
- 14.225085 2 3 tcp 1000 ------- 1 0.0 4.0 21 59
r 14.225087 0 2 tcp 1000 ------- 1 0.0 4.0 23 61
+ 14.225087 2 3 tcp 1000 ------- 1 0.0 4.0 23 61
r 14.225093 0 2 tcp 1000 ------- 1 0.0 4.0 24 62
+ 14.225093 2 3 tcp 1000 ------- 1 0.0 4.0 24 62
- 14.225093 2 3 tcp 1000 ------- 1 0.0 4.0 22 60
r 14.225095 0 2 tcp 1000 ------- 1 0.0 4.0 25 63
+ 14.225095 2 3 tcp 1000 ------- 1 0.0 4.0 25 63
r 14.225101 0 2 tcp 1000 ------- 1 0.0 4.0 26 64
+ 14.225101 2 3 tcp 1000 ------- 1 0.0 4.0 26 64
- 14.225101 2 3 tcp 1000 ------- 1 0.0 4.0 23 61
r 14.225103 0 2 tcp 1000 ------- 1 0.0 4.0 27 65
+ 14.225103 2 3 tcp 1000 ------- 1 0.0 4.0 27 65
r 14.225109 0 2 tcp 1000 ------- 1 0.0 4.0 28 66
+ 14.225109 2 3 tcp 1000 ------- 1 0.0 4.0 28 66
- 14.225109 2 3 tcp 1000 ------- 1 0.0 4.0 24 62
r 14.225111 0 2 tcp 1000 ------- 1 0.0 4.0 29 67
+ 14.225111 2 3 tcp 1000 ------- 1 0.0 4.0 29 67
r 14.225117 0 2 tcp 1000 ------- 1 0.0 4.0 30 68
+ 14.225117 2 3 tcp 1000 ------- 1 0.0 4.0 30 68
- 14.225117 2 3 tcp 1000 ------- 1 0.0 4.0 25 63
r 14.225119 0 2 tcp 1000 ------- 1 0.0 4.0 31 69
+ 14.225119 2 3 tcp 1000 ------- 1 0.0 4.0 31 69
- 14.225125 2 3 tcp 1000 ------- 1 0.0 4.0 26 64
- 14.225133 2 3 tcp 1000 ------- 1 0.0 4.0 27 65
- 14.225141 2 3 tcp 1000 ------- 1 0.0 4.0 28 66
- 14.225149 2 3 tcp 1000 ------- 1 0.0 4.0 29 67
- 14.225157 2 3 tcp 1000 ------- 1 0.0 4.0 30 68
- 14.225165 2 3 tcp 1000 ------- 1 0.0 4.0 31 69
r 14.275085 2 3 tcp 1000 ------- 1 0.0 4.0 20 58
+ 14.275085 3 4 tcp 1000 ------- 1 0.0 4.0 20 58