V -t * -v 1.0a5 -a 0
A -t * -n 1 -p 0 -o 0x7fffffff -c 30 -a 1
A -t * -h 1 -m 1073741823 -s 0
c -t * -i 1 -n Blue
c -t * -i 2 -n Red
n -t * -a 4 -s 4 -S UP -v circle -c black -i black
n -t * -a 0 -s 0 -S UP -v circle -c black -i black
n -t * -a 5 -s 5 -S UP -v circle -c black -i black
n -t * -a 1 -s 1 -S UP -v circle -c black -i black
n -t * -a 2 -s 2 -S UP -v circle -c black -i black
n -t * -a 3 -s 3 -S UP -v circle -c black -i black
l -t * -s 0 -d 2 -S UP -r 4000000000 -D 0.55600000000000005 -c black -o right-down
l -t * -s 1 -d 2 -S UP -r 4000000000 -D 0.83400000000000007 -c black -o right-up
l -t * -s 2 -d 3 -S UP -r 1000000000 -D 0.050000000000000003 -c black -o right
l -t * -s 3 -d 4 -S UP -r 4000000000 -D 0.55600000000000005 -c black -o right-up
l -t * -s 3 -d 5 -S UP -r 4000000000 -D 0.83400000000000007 -c black -o right-down
+ -t 0 -s 1 -d 2 -p tcp -e 1000 -c 2 -i 0 -a 2 -x {1.0 5.0 0 ------- null}
- -t 0 -s 1 -d 2 -p tcp -e 1000 -c 2 -i 0 -a 2 -x {1.0 5.0 0 ------- null}
h -t 0 -s 1 -d 2 -p tcp -e 1000 -c 2 -i 0 -a 2 -x {1.0 5.0 -1 ------- null}
+ -t 0 -s 0 -d 2 -p tcp -e 1000 -c 1 -i 1 -a 1 -x {0.0 4.0 0 ------- null}
- -t 0 -s 0 -d 2 -p tcp -e 1000 -c 1 -i 1 -a 1 -x {0.0 4.0 0 ------- null}
h -t 0 -s 0 -d 2 -p tcp -e 1000 -c 1 -i 1 -a 1 -x {0.0 4.0 -1 ------- null}
r -t 0.556002 -s 0 -d 2 -p tcp -e 1000 -c 1 -i 1 -a 1 -x {0.0 4.0 0 ------- null}
+ -t 0.556002 -s 2 -d 3 -p tcp -e 1000 -c 1 -i 1 -a 1 -x {0.0 4.0 0 ------- null}
- -t 0.556002 -s 2 -d 3 -p tcp -e 1000 -c 1 -i 1 -a 1 -x {0.0 4.0 0 ------- null}
h -t 0.556002 -s 2 -d 3 -p tcp -e 1000 -c 1 -i 1 -a 1 -x {0.0 4.0 -1 ------- null}
r -t 0.60601 -s 2 -d 3 -p tcp -e 1000 -c 1 -i 1 -a 1 -x {0.0 4.0 0 ------- null}
+ -t 0.60601 -s 3 -d 4 -p tcp -e 1000 -c 1 -i 1 -a 1 -x {0.0 4.0 0 ------- null}
- -t 0.60601 -s 3 -d 4 -p tcp -e 1000 -c 1 -i 1 -a 1 -x {0.0 4.0 0 ------- null}
h -t 0.60601 -s 3 -d 4 -p tcp -e 1000 -c 1 -i 1 -a 1 -x {0.0 4.0 -1 ------- null}
r -t 0.834002 -s 1 -d 2 -p tcp -e 1000 -c 2 -i 0 -a 2 -x {1.0 5.0 0 ------- null}
+ -t 0.834002 -s 2 -d 3 -p tcp -e 1000 -c 2 -i 0 -a 2 -x {1.0 5.0 0 ------- null}
- -t 0.834002 -s 2 -d 3 -p tcp -e 1000 -c 2 -i 0 -a 2 -x {1.0 5.0 0 ------- null}
h -t 0.834002 -s 2 -d 3 -p tcp -e 1000 -c 2 -i 0 -a 2 -x {1.0 5.0 -1 ------- null}
r -t 0.88401 -s 2 -d 3 -p tcp -e 1000 -c 2 -i 0 -a 2 -x {1.0 5.0 0 ------- null}
+ -t 0.88401 -s 3 -d 5 -p tcp -e 1000 -c 2 -i 0 -a 2 -x {1.0 5.0 0 ------- null}
- -t 0.88401 -s 3 -d 5 -p tcp -e 1000 -c 2 -i 0 -a 2 -x {1.0 5.0 0 ------- null}
h -t 0.88401 -s 3 -d 5 -p tcp -e 1000 -c 2 -i 0 -a 2 -x {1.0 5.0 -1 ------- null}
r -t 1.162012 -s 3 -d 4 -p tcp -e 1000 -c 1 -i 1 -a 1 -x {0.0 4.0 0 ------- null}
+ -t 1.162012 -s 4 -d 3 -p ack -e 40 -c 1 -i 2 -a 1 -x {4.0 0.0 0 ------- null}
- -t 1.162012 -s 4 -d 3 -p ack -e 40 -c 1 -i 2 -a 1 -x {4.0 0.0 0 ------- null}
h -t 1.162012 -s 4 -d 3 -p ack -e 40 -c 1 -i 2 -a 1 -x {4.0 0.0 -1 ------- null}
r -t 1.718012 -s 3 -d 5 -p tcp -e 1000 -c 2 -i 0 -a 2 -x {1.0 5.0 0 ------- null}
+ -t 1.718012 -s 5 -d 3 -p ack -e 40 -c 2 -i 3 -a 2 -x {5.0 1.0 0 ------- null}
- -t 1.718012 -s 5 -d 3 -p ack -e 40 -c 2 -i 3 -a 2 -x {5.0 1.0 0 ------- null}
h -t 1.718012 -s 5 -d 3 -p ack -e 40 -c 2 -i 3 -a 2 -x {5.0 1.0 -1 ------- null}
r -t 1.71801208 -s 4 -d 3 -p ack -e 40 -c 1 -i 2 -a 1 -x {4.0 0.0 0 ------- null}
+ -t 1.71801208 -s 3 -d 2 -p ack -e 40 -c 1 -i 2 -a 1 -x {4.0 0.0 0 ------- null}
- -t 1.71801208 -s 3 -d 2 -p ack -e 40 -c 1 -i 2 -a 1 -x {4.0 0.0 0 ------- null}
h -t 1.71801208 -s 3 -d 2 -p ack -e 40 -c 1 -i 2 -a 1 -x {4.0 0.0 -1 ------- null}
r -t 1.7680124 -s 3 -d 2 -p ack -e 40 -c 1 -i 2 -a 1 -x {4.0 0.0 0 ------- null}
+ -t 1.7680124 -s 2 -d 0 -p ack -e 40 -c 1 -i 2 -a 1 -x {4.0 0.0 0 ------- null}
- -t 1.7680124 -s 2 -d 0 -p ack -e 40 -c 1 -i 2 -a 1 -x {4.0 0.0 0 ------- null}
h -t 1.7680124 -s 2 -d 0 -p ack -e 40 -c 1 -i 2 -a 1 -x {4.0 0.0 -1 ------- null}
r -t 2.32401248 -s 2 -d 0 -p ack -e 40 -c 1 -i 2 -a 1 -x {4.0 0.0 0 ------- null}
+ -t 2.32401248 -s 0 -d 2 -p tcp -e 1000 -c 1 -i 4 -a 1 -x {0.0 4.0 1 ------- null}
- -t 2.32401248 -s 0 -d 2 -p tcp -e 1000 -c 1 -i 4 -a 1 -x {0.0 4.0 1 ------- null}
h -t 2.32401248 -s 0 -d 2 -p tcp -e 1000 -c 1 -i 4 -a 1 -x {0.0 4.0 -1 ------- null}
r -t 2.55201208 -s 5 -d 3 -p ack -e 40 -c 2 -i 3 -a 2 -x {5.0 1.0 0 ------- null}
+ -t 2.55201208 -s 3 -d 2 -p ack -e 40 -c 2 -i 3 -a 2 -x {5.0 1.0 0 ------- null}
- -t 2.55201208 -s 3 -d 2 -p ack -e 40 -c 2 -i 3 -a 2 -x {5.0 1.0 0 ------- null}
h -t 2.55201208 -s 3 -d 2 -p ack -e 40 -c 2 -i 3 -a 2 -x {5.0 1.0 -1 ------- null}
r -t 2.6020124 -s 3 -d 2 -p ack -e 40 -c 2 -i 3 -a 2 -x {5.0 1.0 0 ------- null}
+ -t 2.6020124 -s 2 -d 1 -p ack -e 40 -c 2 -i 3 -a 2 -x {5.0 1.0 0 ------- null}
- -t 2.6020124 -s 2 -d 1 -p ack -e 40 -c 2 -i 3 -a 2 -x {5.0 1.0 0 ------- null}
h -t 2.6020124 -s 2 -d 1 -p ack -e 40 -c 2 -i 3 -a 2 -x {5.0 1.0 -1 ------- null}
r -t 2.88001448 -s 0 -d 2 -p tcp -e 1000 -c 1 -i 4 -a 1 -x {0.0 4.0 1 ------- null}
+ -t 2.88001448 -s 2 -d 3 -p tcp -e 1000 -c 1 -i 4 -a 1 -x {0.0 4.0 1 ------- null}
- -t 2.88001448 -s 2 -d 3 -p tcp -e 1000 -c 1 -i 4 -a 1 -x {0.0 4.0 1 ------- null}
h -t 2.88001448 -s 2 -d 3 -p tcp -e 1000 -c 1 -i 4 -a 1 -x {0.0 4.0 -1 ------- null}
r -t 2.93002248 -s 2 -d 3 -p tcp -e 1000 -c 1 -i 4 -a 1 -x {0.0 4.0 1 ------- null}
+ -t 2.93002248 -s 3 -d 4 -p tcp -e 1000 -c 1 -i 4 -a 1 -x {0.0 4.0 1 ------- null}
- -t 2.93002248 -s 3 -d 4 -p tcp -e 1000 -c 1 -i 4 -a 1 -x {0.0 4.0 1 ------- null}
h -t 2.93002248 -s 3 -d 4 -p tcp -e 1000 -c 1 -i 4 -a 1 -x {0.0 4.0 -1 ------- null}
+ -t 3 -s 1 -d 2 -p tcp -e 1000 -c 2 -i 5 -a 2 -x {1.0 5.0 0 ------- null}
- -t 3 -s 1 -d 2 -p tcp -e 1000 -c 2 -i 5 -a 2 -x {1.0 5.0 0 ------- null}
h -t 3 -s 1 -d 2 -p tcp -e 1000 -c 2 -i 5 -a 2 -x {1.0 5.0 -1 ------- null}
+ -t 3 -s 1 -d 2 -p tcp -e 1000 -c 2 -i 6 -a 2 -x {1.0 5.0 1 ------- null}
- -t 3.000002 -s 1 -d 2 -p tcp -e 1000 -c 2 -i 6 -a 2 -x {1.0 5.0 1 ------- null}
h -t 3.000002 -s 1 -d 2 -p tcp -e 1000 -c 2 -i 6 -a 2 -x {1.0 5.0 -1 ------- null}
r -t 3.43601248 -s 2 -d 1 -p ack -e 40 -c 2 -i 3 -a 2 -x {5.0 1.0 0 ------- null}
+ -t 3.43601248 -s 1 -d 2 -p tcp -e 1000 -c 2 -i 7 -a 2 -x {1.0 5.0 2 ------- null}
- -t 3.43601248 -s 1 -d 2 -p tcp -e 1000 -c 2 -i 7 -a 2 -x {1.0 5.0 2 ------- null}
h -t 3.43601248 -s 1 -d 2 -p tcp -e 1000 -c 2 -i 7 -a 2 -x {1.0 5.0 -1 ------- null}
r -t 3.48602448 -s 3 -d 4 -p tcp -e 1000 -c 1 -i 4 -a 1 -x {0.0 4.0 1 ------- null}
+ -t 3.48602448 -s 4 -d 3 -p ack -e 40 -c 1 -i 8 -a 1 -x {4.0 0.0 1 ------- null}
- -t 3.48602448 -s 4 -d 3 -p ack -e 40 -c 1 -i 8 -a 1 -x {4.0 0.0 1 ------- null}
h -t 3.48602448 -s 4 -d 3 -p ack -e 40 -c 1 -i 8 -a 1 -x {4.0 0.0 -1 ------- null}
r -t 3.834002 -s 1 -d 2 -p tcp -e 1000 -c 2 -i 5 -a 2 -x {1.0 5.0 0 ------- null}
+ -t 3.834002 -s 2 -d 3 -p tcp -e 1000 -c 2 -i 5 -a 2 -x {1.0 5.0 0 ------- null}
- -t 3.834002 -s 2 -d 3 -p tcp -e 1000 -c 2 -i 5 -a 2 -x {1.0 5.0 0 ------- null}
h -t 3.834002 -s 2 -d 3 -p tcp -e 1000 -c 2 -i 5 -a 2 -x {1.0 5.0 -1 ------- null}
r -t 3.834004 -s 1 -d 2 -p tcp -e 1000 -c 2 -i 6 -a 2 -x {1.0 5.0 1 ------- null}
+ -t 3.834004 -s 2 -d 3 -p tcp -e 1000 -c 2 -i 6 -a 2 -x {1.0 5.0 1 ------- null}
- -t 3.83401 -s 2 -d 3 -p tcp -e 1000 -c 2 -i 6 -a 2 -x {1.0 5.0 1 ------- null}
h -t 3.83401 -s 2 -d 3 -p tcp -e 1000 -c 2 -i 6 -a 2 -x {1.0 5.0 -1 ------- null}
r -t 3.88401 -s 2 -d 3 -p tcp -e 1000 -c 2 -i 5 -a 2 -x {1.0 5.0 0 ------- null}
+ -t 3.88401 -s 3 -d 5 -p tcp -e 1000 -c 2 -i 5 -a 2 -x {1.0 5.0 0 ------- null}
- -t 3.88401 -s 3 -d 5 -p tcp -e 1000 -c 2 -i 5 -a 2 -x {1.0 5.0 0 ------- null}
h -t 3.88401 -s 3 -d 5 -p tcp -e 1000 -c 2 -i 5 -a 2 -x {1.0 5.0 -1 ------- null}
r -t 3.884018 -s 2 -d 3 -p tcp -e 1000 -c 2 -i 6 -a 2 -x {1.0 5.0 1 ------- null}
+ -t 3.884018 -s 3 -d 5 -p tcp -e 1000 -c 2 -i 6 -a 2 -x {1.0 5.0 1 ------- null}
- -t 3.884018 -s 3 -d 5 -p tcp -e 1000 -c 2 -i 6 -a 2 -x {1.0 5.0 1 ------- null}
h -t 3.884018 -s 3 -d 5 -p tcp -e 1000 -c 2 -i 6 -a 2 -x {1.0 5.0 -1 ------- null}
r -t 4.04202456 -s 4 -d 3 -p ack -e 40 -c 1 -i 8 -a 1 -x {4.0 0.0 1 ------- null}
+ -t 4.04202456 -s 3 -d 2 -p ack -e 40 -c 1 -i 8 -a 1 -x {4.0 0.0 1 ------- null}
- -t 4.04202456 -s 3 -d 2 -p ack -e 40 -c 1 -i 8 -a 1 -x {4.0 0.0 1 ------- null}
h -t 4.04202456 -s 3 -d 2 -p ack -e 40 -c 1 -i 8 -a 1 -x {4.0 0.0 -1 ------- null}
r -t 4.09202488 -s 3 -d 2 -p ack -e 40 -c 1 -i 8 -a 1 -x {4.0 0.0 1 ------- null}
+ -t 4.09202488 -s 2 -d 0 -p ack -e 40 -c 1 -i 8 -a 1 -x {4.0 0.0 1 ------- null}
- -t 4.09202488 -s 2 -d 0 -p ack -e 40 -c 1 -i 8 -a 1 -x {4.0 0.0 1 ------- null}
h -t 4.09202488 -s 2 -d 0 -p ack -e 40 -c 1 -i 8 -a 1 -x {4.0 0.0 -1 ------- null}
r -t 4.27001448 -s 1 -d 2 -p tcp -e 1000 -c 2 -i 7 -a 2 -x {1.0 5.0 2 ------- null}
+ -t 4.27001448 -s 2 -d 3 -p tcp -e 1000 -c 2 -i 7 -a 2 -x {1.0 5.0 2 ------- null}
- -t 4.27001448 -s 2 -d 3 -p tcp -e 1000 -c 2 -i 7 -a 2 -x {1.0 5.0 2 ------- null}
h -t 4.27001448 -s 2 -d 3 -p tcp -e 1000 -c 2 -i 7 -a 2 -x {1.0 5.0 -1 ------- null}
r -t 4.32002248 -s 2 -d 3 -p tcp -e 1000 -c 2 -i 7 -a 2 -x {1.0 5.0 2 ------- null}
+ -t 4.32002248 -s 3 -d 5 -p tcp -e 1000 -c 2 -i 7 -a 2 -x {1.0 5.0 2 ------- null}
- -t 4.32002248 -s 3 -d 5 -p tcp -e 1000 -c 2 -i 7 -a 2 -x {1.0 5.0 2 ------- null}
h -t 4.32002248 -s 3 -d 5 -p tcp -e 1000 -c 2 -i 7 -a 2 -x {1.0 5.0 -1 ------- null}
r -t 4.64802496 -s 2 -d 0 -p ack -e 40 -c 1 -i 8 -a 1 -x {4.0 0.0 1 ------- null}
+ -t 4.64802496 -s 0 -d 2 -p tcp -e 1000 -c 1 -i 9 -a 1 -x {0.0 4.0 2 ------- null}
- -t 4.64802496 -s 0 -d 2 -p tcp -e 1000 -c 1 -i 9 -a 1 -x {0.0 4.0 2 ------- null}
h -t 4.64802496 -s 0 -d 2 -p tcp -e 1000 -c 1 -i 9 -a 1 -x {0.0 4.0 -1 ------- null}
+ -t 4.64802496 -s 0 -d 2 -p tcp -e 1000 -c 1 -i 10 -a 1 -x {0.0 4.0 3 ------- null}
+ -t 4.64802496 -s 0 -d 2 -p tcp -e 1000 -c 1 -i 11 -a 1 -x {0.0 4.0 4 ------- null}
- -t 4.64802696 -s 0 -d 2 -p tcp -e 1000 -c 1 -i 10 -a 1 -x {0.0 4.0 3 ------- null}
h -t 4.64802696 -s 0 -d 2 -p tcp -e 1000 -c 1 -i 10 -a 1 -x {0.0 4.0 -1 ------- null}
- -t 4.64802896 -s 0 -d 2 -p tcp -e 1000 -c 1 -i 11 -a 1 -x {0.0 4.0 4 ------- null}
h -t 4.64802896 -s 0 -d 2 -p tcp -e 1000 -c 1 -i 11 -a 1 -x {0.0 4.0 -1 ------- null}
r -t 4.718012 -s 3 -d 5 -p tcp -e 1000 -c 2 -i 5 -a 2 -x {1.0 5.0 0 ------- null}
+ -t 4.718012 -s 5 -d 3 -p ack -e 40 -c 2 -i 12 -a 2 -x {5.0 1.0 0 ------- null}
- -t 4.718012 -s 5 -d 3 -p ack -e 40 -c 2 -i 12 -a 2 -x {5.0 1.0 0 ------- null}
h -t 4.718012 -s 5 -d 3 -p ack -e 40 -c 2 -i 12 -a 2 -x {5.0 1.0 -1 ------- null}
r -t 4.71802 -s 3 -d 5 -p tcp -e 1000 -c 2 -i 6 -a 2 -x {1.0 5.0 1 ------- null}
+ -t 4.71802 -s 5 -d 3 -p ack -e 40 -c 2 -i 13 -a 2 -x {5.0 1.0 1 ------- null}
- -t 4.71802 -s 5 -d 3 -p ack -e 40 -c 2 -i 13 -a 2 -x {5.0 1.0 1 ------- null}
h -t 4.71802 -s 5 -d 3 -p ack -e 40 -c 2 -i 13 -a 2 -x {5.0 1.0 -1 ------- null}
r -t 5.15402448 -s 3 -d 5 -p tcp -e 1000 -c 2 -i 7 -a 2 -x {1.0 5.0 2 ------- null}
+ -t 5.15402448 -s 5 -d 3 -p ack -e 40 -c 2 -i 14 -a 2 -x {5.0 1.0 2 ------- null}
- -t 5.15402448 -s 5 -d 3 -p ack -e 40 -c 2 -i 14 -a 2 -x {5.0 1.0 2 ------- null}
h -t 5.15402448 -s 5 -d 3 -p ack -e 40 -c 2 -i 14 -a 2 -x {5.0 1.0 -1 ------- null}
r -t 5.20402696 -s 0 -d 2 -p tcp -e 1000 -c 1 -i 9 -a 1 -x {0.0 4.0 2 ------- null}
+ -t 5.20402696 -s 2 -d 3 -p tcp -e 1000 -c 1 -i 9 -a 1 -x {0.0 4.0 2 ------- null}
- -t 5.20402696 -s 2 -d 3 -p tcp -e 1000 -c 1 -i 9 -a 1 -x {0.0 4.0 2 ------- null}
h -t 5.20402696 -s 2 -d 3 -p tcp -e 1000 -c 1 -i 9 -a 1 -x {0.0 4.0 -1 ------- null}
r -t 5.20402896 -s 0 -d 2 -p tcp -e 1000 -c 1 -i 10 -a 1 -x {0.0 4.0 3 ------- null}
+ -t 5.20402896 -s 2 -d 3 -p tcp -e 1000 -c 1 -i 10 -a 1 -x {0.0 4.0 3 ------- null}
r -t 5.20403096 -s 0 -d 2 -p tcp -e 1000 -c 1 -i 11 -a 1 -x {0.0 4.0 4 ------- null}
+ -t 5.20403096 -s 2 -d 3 -p tcp -e 1000 -c 1 -i 11 -a 1 -x {0.0 4.0 4 ------- null}
- -t 5.20403496 -s 2 -d 3 -p tcp -e 1000 -c 1 -i 10 -a 1 -x {0.0 4.0 3 ------- null}
h -t 5.20403496 -s 2 -d 3 -p tcp -e 1000 -c 1 -i 10 -a 1 -x {0.0 4.0 -1 ------- null}
- -t 5.20404296 -s 2 -d 3 -p tcp -e 1000 -c 1 -i 11 -a 1 -x {0.0 4.0 4 ------- null}
h -t 5.20404296 -s 2 -d 3 -p tcp -e 1000 -c 1 -i 11 -a 1 -x {0.0 4.0 -1 ------- null}
r -t 5.25403496 -s 2 -d 3 -p tcp -e 1000 -c 1 -i 9 -a 1 -x {0.0 4.0 2 ------- null}
+ -t 5.25403496 -s 3 -d 4 -p tcp -e 1000 -c 1 -i 9 -a 1 -x {0.0 4.0 2 ------- null}
- -t 5.25403496 -s 3 -d 4 -p tcp -e 1000 -c 1 -i 9 -a 1 -x {0.0 4.0 2 ------- null}
h -t 5.25403496 -s 3 -d 4 -p tcp -e 1000 -c 1 -i 9 -a 1 -x {0.0 4.0 -1 ------- null}
r -t 5.25404296 -s 2 -d 3 -p tcp -e 1000 -c 1 -i 10 -a 1 -x {0.0 4.0 3 ------- null}
+ -t 5.25404296 -s 3 -d 4 -p tcp -e 1000 -c 1 -i 10 -a 1 -x {0.0 4.0 3 ------- null}
- -t 5.25404296 -s 3 -d 4 -p tcp -e 1000 -c 1 -i 10 -a 1 -x {0.0 4.0 3 ------- null}
h -t 5.25404296 -s 3 -d 4 -p tcp -e 1000 -c 1 -i 10 -a 1 -x {0.0 4.0 -1 ------- null}
r -t 5.25405096 -s 2 -d 3 -p tcp -e 1000 -c 1 -i 11 -a 1 -x {0.0 4.0 4 ------- null}
+ -t 5.25405096 -s 3 -d 4 -p tcp -e 1000 -c 1 -i 11 -a 1 -x {0.0 4.0 4 ------- null}
- -t 5.25405096 -s 3 -d 4 -p tcp -e 1000 -c 1 -i 11 -a 1 -x {0.0 4.0 4 ------- null}
h -t 5.25405096 -s 3 -d 4 -p tcp -e 1000 -c 1 -i 11 -a 1 -x {0.0 4.0 -1 ------- null}
r -t 5.55201208 -s 5 -d 3 -p ack -e 40 -c 2 -i 12 -a 2 -x {5.0 1.0 0 ------- null}
+ -t 5.55201208 -s 3 -d 2 -p ack -e 40 -c 2 -i 12 -a 2 -x {5.0 1.0 0 ------- null}
- -t 5.55201208 -s 3 -d 2 -p ack -e 40 -c 2 -i 12 -a 2 -x {5.0 1.0 0 ------- null}
h -t 5.55201208 -s 3 -d 2 -p ack -e 40 -c 2 -i 12 -a 2 -x {5.0 1.0 -1 ------- null}
r -t 5.55202008 -s 5 -d 3 -p ack -e 40 -c 2 -i 13 -a 2 -x {5.0 1.0 1 ------- null}
+ -t 5.55202008 -s 3 -d 2 -p ack -e 40 -c 2 -i 13 -a 2 -x {5.0 1.0 1 ------- null}
- -t 5.55202008 -s 3 -d 2 -p ack -e 40 -c 2 -i 13 -a 2 -x {5.0 1.0 1 ------- null}
h -t 5.55202008 -s 3 -d 2 -p ack -e 40 -c 2 -i 13 -a 2 -x {5.0 1.0 -1 ------- null}
r -t 5.6020124 -s 3 -d 2 -p ack -e 40 -c 2 -i 12 -a 2 -x {5.0 1.0 0 ------- null}
+ -t 5.6020124 -s 2 -d 1 -p ack -e 40 -c 2 -i 12 -a 2 -x {5.0 1.0 0 ------- null}
- -t 5.6020124 -s 2 -d 1 -p ack -e 40 -c 2 -i 12 -a 2 -x {5.0 1.0 0 ------- null}
h -t 5.6020124 -s 2 -d 1 -p ack -e 40 -c 2 -i 12 -a 2 -x {5.0 1.0 -1 ------- null}
r -t 5.6020204 -s 3 -d 2 -p ack -e 40 -c 2 -i 13 -a 2 -x {5.0 1.0 1 ------- null}
+ -t 5.6020204 -s 2 -d 1 -p ack -e 40 -c 2 -i 13 -a 2 -x {5.0 1.0 1 ------- null}
- -t 5.6020204 -s 2 -d 1 -p ack -e 40 -c 2 -i 13 -a 2 -x {5.0 1.0 1 ------- null}
h -t 5.6020204 -s 2 -d 1 -p ack -e 40 -c 2 -i 13 -a 2 -x {5.0 1.0 -1 ------- null}
r -t 5.81003696 -s 3 -d 4 -p tcp -e 1000 -c 1 -i 9 -a 1 -x {0.0 4.0 2 ------- null}
+ -t 5.81003696 -s 4 -d 3 -p ack -e 40 -c 1 -i 15 -a 1 -x {4.0 0.0 2 ------- null}
- -t 5.81003696 -s 4 -d 3 -p ack -e 40 -c 1 -i 15 -a 1 -x {4.0 0.0 2 ------- null}
h -t 5.81003696 -s 4 -d 3 -p ack -e 40 -c 1 -i 15 -a 1 -x {4.0 0.0 -1 ------- null}
r -t 5.81004496 -s 3 -d 4 -p tcp -e 1000 -c 1 -i 10 -a 1 -x {0.0 4.0 3 ------- null}
+ -t 5.81004496 -s 4 -d 3 -p ack -e 40 -c 1 -i 16 -a 1 -x {4.0 0.0 3 ------- null}
- -t 5.81004496 -s 4 -d 3 -p ack -e 40 -c 1 -i 16 -a 1 -x {4.0 0.0 3 ------- null}
h -t 5.81004496 -s 4 -d 3 -p ack -e 40 -c 1 -i 16 -a 1 -x {4.0 0.0 -1 ------- null}
r -t 5.81005296 -s 3 -d 4 -p tcp -e 1000 -c 1 -i 11 -a 1 -x {0.0 4.0 4 ------- null}
+ -t 5.81005296 -s 4 -d 3 -p ack -e 40 -c 1 -i 17 -a 1 -x {4.0 0.0 4 ------- null}
- -t 5.81005296 -s 4 -d 3 -p ack -e 40 -c 1 -i 17 -a 1 -x {4.0 0.0 4 ------- null}
h -t 5.81005296 -s 4 -d 3 -p ack -e 40 -c 1 -i 17 -a 1 -x {4.0 0.0 -1 ------- null}
r -t 5.98802456 -s 5 -d 3 -p ack -e 40 -c 2 -i 14 -a 2 -x {5.0 1.0 2 ------- null}
+ -t 5.98802456 -s 3 -d 2 -p ack -e 40 -c 2 -i 14 -a 2 -x {5.0 1.0 2 ------- null}
- -t 5.98802456 -s 3 -d 2 -p ack -e 40 -c 2 -i 14 -a 2 -x {5.0 1.0 2 ------- null}
h -t 5.98802456 -s 3 -d 2 -p ack -e 40 -c 2 -i 14 -a 2 -x {5.0 1.0 -1 ------- null}
r -t 6.03802488 -s 3 -d 2 -p ack -e 40 -c 2 -i 14 -a 2 -x {5.0 1.0 2 ------- null}
+ -t 6.03802488 -s 2 -d 1 -p ack -e 40 -c 2 -i 14 -a 2 -x {5.0 1.0 2 ------- null}
- -t 6.03802488 -s 2 -d 1 -p ack -e 40 -c 2 -i 14 -a 2 -x {5.0 1.0 2 ------- null}
h -t 6.03802488 -s 2 -d 1 -p ack -e 40 -c 2 -i 14 -a 2 -x {5.0 1.0 -1 ------- null}
r -t 6.36603704 -s 4 -d 3 -p ack -e 40 -c 1 -i 15 -a 1 -x {4.0 0.0 2 ------- null}
+ -t 6.36603704 -s 3 -d 2 -p ack -e 40 -c 1 -i 15 -a 1 -x {4.0 0.0 2 ------- null}
- -t 6.36603704 -s 3 -d 2 -p ack -e 40 -c 1 -i 15 -a 1 -x {4.0 0.0 2 ------- null}
h -t 6.36603704 -s 3 -d 2 -p ack -e 40 -c 1 -i 15 -a 1 -x {4.0 0.0 -1 ------- null}
r -t 6.36604504 -s 4 -d 3 -p ack -e 40 -c 1 -i 16 -a 1 -x {4.0 0.0 3 ------- null}
+ -t 6.36604504 -s 3 -d 2 -p ack -e 40 -c 1 -i 16 -a 1 -x {4.0 0.0 3 ------- null}
- -t 6.36604504 -s 3 -d 2 -p ack -e 40 -c 1 -i 16 -a 1 -x {4.0 0.0 3 ------- null}
h -t 6.36604504 -s 3 -d 2 -p ack -e 40 -c 1 -i 16 -a 1 -x {4.0 0.0 -1 ------- null}
r -t 6.36605304 -s 4 -d 3 -p ack -e 40 -c 1 -i 17 -a 1 -x {4.0 0.0 4 ------- null}
+ -t 6.36605304 -s 3 -d 2 -p ack -e 40 -c 1 -i 17 -a 1 -x {4.0 0.0 4 ------- null}
- -t 6.36605304 -s 3 -d 2 -p ack -e 40 -c 1 -i 17 -a 1 -x {4.0 0.0 4 ------- null}
h -t 6.36605304 -s 3 -d 2 -p ack -e 40 -c 1 -i 17 -a 1 -x {4.0 0.0 -1 ------- null}
r -t 6.41603736 -s 3 -d 2 -p ack -e 40 -c 1 -i 15 -a 1 -x {4.0 0.0 2 ------- null}
+ -t 6.41603736 -s 2 -d 0 -p ack -e 40 -c 1 -i 15 -a 1 -x {4.0 0.0 2 ------- null}
- -t 6.41603736 -s 2 -d 0 -p ack -e 40 -c 1 -i 15 -a 1 -x {4.0 0.0 2 ------- null}
h -t 6.41603736 -s 2 -d 0 -p ack -e 40 -c 1 -i 15 -a 1 -x {4.0 0.0 -1 ------- null}
r -t 6.41604536 -s 3 -d 2 -p ack -e 40 -c 1 -i 16 -a 1 -x {4.0 0.0 3 ------- null}
+ -t 6.41604536 -s 2 -d 0 -p ack -e 40 -c 1 -i 16 -a 1 -x {4.0 0.0 3 ------- null}
- -t 6.41604536 -s 2 -d 0 -p ack -e 40 -c 1 -i 16 -a 1 -x {4.0 0.0 3 ------- null}
h -t 6.41604536 -s 2 -d 0 -p ack -e 40 -c 1 -i 16 -a 1 -x {4.0 0.0 -1 ------- null}
r -t 6.41605336 -s 3 -d 2 -p ack -e 40 -c 1 -i 17 -a 1 -x {4.0 0.0 4 ------- null}
+ -t 6.41605336 -s 2 -d 0 -p ack -e 40 -c 1 -i 17 -a 1 -x {4.0 0.0 4 ------- null}
- -t 6.41605336 -s 2 -d 0 -p ack -e 40 -c 1 -i 17 -a 1 -x {4.0 0.0 4 ------- null}
h -t 6.41605336 -s 2 -d 0 -p ack -e 40 -c 1 -i 17 -a 1 -x {4.0 0.0 -1 ------- null}
r -t 6.43601248 -s 2 -d 1 -p ack -e 40 -c 2 -i 12 -a 2 -x {5.0 1.0 0 ------- null}
r -t 6.43602048 -s 2 -d 1 -p ack -e 40 -c 2 -i 13 -a 2 -x {5.0 1.0 1 ------- null}
+ -t 6.43602048 -s 1 -d 2 -p tcp -e 1000 -c 2 -i 18 -a 2 -x {1.0 5.0 3 ------- null}
- -t 6.43602048 -s 1 -d 2 -p tcp -e 1000 -c 2 -i 18 -a 2 -x {1.0 5.0 3 ------- null}
h -t 6.43602048 -s 1 -d 2 -p tcp -e 1000 -c 2 -i 18 -a 2 -x {1.0 5.0 -1 ------- null}
r -t 6.87202496 -s 2 -d 1 -p ack -e 40 -c 2 -i 14 -a 2 -x {5.0 1.0 2 ------- null}
+ -t 6.87202496 -s 1 -d 2 -p tcp -e 1000 -c 2 -i 19 -a 2 -x {1.0 5.0 4 ------- null}
- -t 6.87202496 -s 1 -d 2 -p tcp -e 1000 -c 2 -i 19 -a 2 -x {1.0 5.0 4 ------- null}
h -t 6.87202496 -s 1 -d 2 -p tcp -e 1000 -c 2 -i 19 -a 2 -x {1.0 5.0 -1 ------- null}
r -t 6.97203744 -s 2 -d 0 -p ack -e 40 -c 1 -i 15 -a 1 -x {4.0 0.0 2 ------- null}
+ -t 6.97203744 -s 0 -d 2 -p tcp -e 1000 -c 1 -i 20 -a 1 -x {0.0 4.0 5 ------- null}
- -t 6.97203744 -s 0 -d 2 -p tcp -e 1000 -c 1 -i 20 -a 1 -x {0.0 4.0 5 ------- null}
h -t 6.97203744 -s 0 -d 2 -p tcp -e 1000 -c 1 -i 20 -a 1 -x {0.0 4.0 -1 ------- null}
r -t 6.97204544 -s 2 -d 0 -p ack -e 40 -c 1 -i 16 -a 1 -x {4.0 0.0 3 ------- null}
+ -t 6.97204544 -s 0 -d 2 -p tcp -e 1000 -c 1 -i 21 -a 1 -x {0.0 4.0 6 ------- null}
- -t 6.97204544 -s 0 -d 2 -p tcp -e 1000 -c 1 -i 21 -a 1 -x {0.0 4.0 6 ------- null}
h -t 6.97204544 -s 0 -d 2 -p tcp -e 1000 -c 1 -i 21 -a 1 -x {0.0 4.0 -1 ------- null}
r -t 6.97205344 -s 2 -d 0 -p ack -e 40 -c 1 -i 17 -a 1 -x {4.0 0.0 4 ------- null}
+ -t 6.97205344 -s 0 -d 2 -p tcp -e 1000 -c 1 -i 22 -a 1 -x {0.0 4.0 7 ------- null}
- -t 6.97205344 -s 0 -d 2 -p tcp -e 1000 -c 1 -i 22 -a 1 -x {0.0 4.0 7 ------- null}
h -t 6.97205344 -s 0 -d 2 -p tcp -e 1000 -c 1 -i 22 -a 1 -x {0.0 4.0 -1 ------- null}
r -t 7.27002248 -s 1 -d 2 -p tcp -e 1000 -c 2 -i 18 -a 2 -x {1.0 5.0 3 ------- null}
+ -t 7.27002248 -s 2 -d 3 -p tcp -e 1000 -c 2 -i 18 -a 2 -x {1.0 5.0 3 ------- null}
- -t 7.27002248 -s 2 -d 3 -p tcp -e 1000 -c 2 -i 18 -a 2 -x {1.0 5.0 3 ------- null}
h -t 7.27002248 -s 2 -d 3 -p tcp -e 1000 -c 2 -i 18 -a 2 -x {1.0 5.0 -1 ------- null}
r -t 7.32003048 -s 2 -d 3 -p tcp -e 1000 -c 2 -i 18 -a 2 -x {1.0 5.0 3 ------- null}
+ -t 7.32003048 -s 3 -d 5 -p tcp -e 1000 -c 2 -i 18 -a 2 -x {1.0 5.0 3 ------- null}
- -t 7.32003048 -s 3 -d 5 -p tcp -e 1000 -c 2 -i 18 -a 2 -x {1.0 5.0 3 ------- null}
h -t 7.32003048 -s 3 -d 5 -p tcp -e 1000 -c 2 -i 18 -a 2 -x {1.0 5.0 -1 ------- null}
r -t 7.52803944 -s 0 -d 2 -p tcp -e 1000 -c 1 -i 20 -a 1 -x {0.0 4.0 5 ------- null}
+ -t 7.52803944 -s 2 -d 3 -p tcp -e 1000 -c 1 -i 20 -a 1 -x {0.0 4.0 5 ------- null}
- -t 7.52803944 -s 2 -d 3 -p tcp -e 1000 -c 1 -i 20 -a 1 -x {0.0 4.0 5 ------- null}
h -t 7.52803944 -s 2 -d 3 -p tcp -e 1000 -c 1 -i 20 -a 1 -x {0.0 4.0 -1 ------- null}
r -t 7.52804744 -s 0 -d 2 -p tcp -e 1000 -c 1 -i 21 -a 1 -x {0.0 4.0 6 ------- null}
+ -t 7.52804744 -s 2 -d 3 -p tcp -e 1000 -c 1 -i 21 -a 1 -x {0.0 4.0 6 ------- null}
- -t 7.52804744 -s 2 -d 3 -p tcp -e 1000 -c 1 -i 21 -a 1 -x {0.0 4.0 6 ------- null}
h -t 7.52804744 -s 2 -d 3 -p tcp -e 1000 -c 1 -i 21 -a 1 -x {0.0 4.0 -1 ------- null}
r -t 7.52805544 -s 0 -d 2 -p tcp -e 1000 -c 1 -i 22 -a 1 -x {0.0 4.0 7 ------- null}
+ -t 7.52805544 -s 2 -d 3 -p tcp -e 1000 -c 1 -i 22 -a 1 -x {0.0 4.0 7 ------- null}
- -t 7.52805544 -s 2 -d 3 -p tcp -e 1000 -c 1 -i 22 -a 1 -x {0.0 4.0 7 ------- null}
h -t 7.52805544 -s 2 -d 3 -p tcp -e 1000 -c 1 -i 22 -a 1 -x {0.0 4.0 -1 ------- null}
r -t 7.57804744 -s 2 -d 3 -p tcp -e 1000 -c 1 -i 20 -a 1 -x {0.0 4.0 5 ------- null}
+ -t 7.57804744 -s 3 -d 4 -p tcp -e 1000 -c 1 -i 20 -a 1 -x {0.0 4.0 5 ------- null}
- -t 7.57804744 -s 3 -d 4 -p tcp -e 1000 -c 1 -i 20 -a 1 -x {0.0 4.0 5 ------- null}
h -t 7.57804744 -s 3 -d 4 -p tcp -e 1000 -c 1 -i 20 -a 1 -x {0.0 4.0 -1 ------- null}
r -t 7.57805544 -s 2 -d 3 -p tcp -e 1000 -c 1 -i 21 -a 1 -x {0.0 4.0 6 ------- null}
+ -t 7.57805544 -s 3 -d 4 -p tcp -e 1000 -c 1 -i 21 -a 1 -x {0.0 4.0 6 ------- null}
- -t 7.57805544 -s 3 -d 4 -p tcp -e 1000 -c 1 -i 21 -a 1 -x {0.0 4.0 6 ------- null}
h -t 7.57805544 -s 3 -d 4 -p tcp -e 1000 -c 1 -i 21 -a 1 -x {0.0 4.0 -1 ------- null}
r -t 7.57806344 -s 2 -d 3 -p tcp -e 1000 -c 1 -i 22 -a 1 -x {0.0 4.0 7 ------- null}
+ -t 7.57806344 -s 3 -d 4 -p tcp -e 1000 -c 1 -i 22 -a 1 -x {0.0 4.0 7 ------- null}
- -t 7.57806344 -s 3 -d 4 -p tcp -e 1000 -c 1 -i 22 -a 1 -x {0.0 4.0 7 ------- null}
h -t 7.57806344 -s 3 -d 4 -p tcp -e 1000 -c 1 -i 22 -a 1 -x {0.0 4.0 -1 ------- null}
r -t 7.70602696 -s 1 -d 2 -p tcp -e 1000 -c 2 -i 19 -a 2 -x {1.0 5.0 4 ------- null}
+ -t 7.70602696 -s 2 -d 3 -p tcp -e 1000 -c 2 -i 19 -a 2 -x {1.0 5.0 4 ------- null}
- -t 7.70602696 -s 2 -d 3 -p tcp -e 1000 -c 2 -i 19 -a 2 -x {1.0 5.0 4 ------- null}
h -t 7.70602696 -s 2 -d 3 -p tcp -e 1000 -c 2 -i 19 -a 2 -x {1.0 5.0 -1 ------- null}
r -t 7.75603496 -s 2 -d 3 -p tcp -e 1000 -c 2 -i 19 -a 2 -x {1.0 5.0 4 ------- null}
+ -t 7.75603496 -s 3 -d 5 -p tcp -e 1000 -c 2 -i 19 -a 2 -x {1.0 5.0 4 ------- null}
- -t 7.75603496 -s 3 -d 5 -p tcp -e 1000 -c 2 -i 19 -a 2 -x {1.0 5.0 4 ------- null}
h -t 7.75603496 -s 3 -d 5 -p tcp -e 1000 -c 2 -i 19 -a 2 -x {1.0 5.0 -1 ------- null}
r -t 8.13404944 -s 3 -d 4 -p tcp -e 1000 -c 1 -i 20 -a 1 -x {0.0 4.0 5 ------- null}
+ -t 8.13404944 -s 4 -d 3 -p ack -e 40 -c 1 -i 23 -a 1 -x {4.0 0.0 5 ------- null}
- -t 8.13404944 -s 4 -d 3 -p ack -e 40 -c 1 -i 23 -a 1 -x {4.0 0.0 5 ------- null}
h -t 8.13404944 -s 4 -d 3 -p ack -e 40 -c 1 -i 23 -a 1 -x {4.0 0.0 -1 ------- null}
r -t 8.13405744 -s 3 -d 4 -p tcp -e 1000 -c 1 -i 21 -a 1 -x {0.0 4.0 6 ------- null}
+ -t 8.13405744 -s 4 -d 3 -p ack -e 40 -c 1 -i 24 -a 1 -x {4.0 0.0 6 ------- null}
- -t 8.13405744 -s 4 -d 3 -p ack -e 40 -c 1 -i 24 -a 1 -x {4.0 0.0 6 ------- null}
h -t 8.13405744 -s 4 -d 3 -p ack -e 40 -c 1 -i 24 -a 1 -x {4.0 0.0 -1 ------- null}
r -t 8.13406544 -s 3 -d 4 -p tcp -e 1000 -c 1 -i 22 -a 1 -x {0.0 4.0 7 ------- null}
+ -t 8.13406544 -s 4 -d 3 -p ack -e 40 -c 1 -i 25 -a 1 -x {4.0 0.0 7 ------- null}
- -t 8.13406544 -s 4 -d 3 -p ack -e 40 -c 1 -i 25 -a 1 -x {4.0 0.0 7 ------- null}
h -t 8.13406544 -s 4 -d 3 -p ack -e 40 -c 1 -i 25 -a 1 -x {4.0 0.0 -1 ------- null}
r -t 8.15403248 -s 3 -d 5 -p tcp -e 1000 -c 2 -i 18 -a 2 -x {1.0 5.0 3 ------- null}
+ -t 8.15403248 -s 5 -d 3 -p ack -e 40 -c 2 -i 26 -a 2 -x {5.0 1.0 3 ------- null}
- -t 8.15403248 -s 5 -d 3 -p ack -e 40 -c 2 -i 26 -a 2 -x {5.0 1.0 3 ------- null}
h -t 8.15403248 -s 5 -d 3 -p ack -e 40 -c 2 -i 26 -a 2 -x {5.0 1.0 -1 ------- null}
r -t 8.59003696 -s 3 -d 5 -p tcp -e 1000 -c 2 -i 19 -a 2 -x {1.0 5.0 4 ------- null}
+ -t 8.59003696 -s 5 -d 3 -p ack -e 40 -c 2 -i 27 -a 2 -x {5.0 1.0 4 ------- null}
- -t 8.59003696 -s 5 -d 3 -p ack -e 40 -c 2 -i 27 -a 2 -x {5.0 1.0 4 ------- null}
h -t 8.59003696 -s 5 -d 3 -p ack -e 40 -c 2 -i 27 -a 2 -x {5.0 1.0 -1 ------- null}
r -t 8.69004952 -s 4 -d 3 -p ack -e 40 -c 1 -i 23 -a 1 -x {4.0 0.0 5 ------- null}
+ -t 8.69004952 -s 3 -d 2 -p ack -e 40 -c 1 -i 23 -a 1 -x {4.0 0.0 5 ------- null}
- -t 8.69004952 -s 3 -d 2 -p ack -e 40 -c 1 -i 23 -a 1 -x {4.0 0.0 5 ------- null}
h -t 8.69004952 -s 3 -d 2 -p ack -e 40 -c 1 -i 23 -a 1 -x {4.0 0.0 -1 ------- null}
r -t 8.69005752 -s 4 -d 3 -p ack -e 40 -c 1 -i 24 -a 1 -x {4.0 0.0 6 ------- null}
+ -t 8.69005752 -s 3 -d 2 -p ack -e 40 -c 1 -i 24 -a 1 -x {4.0 0.0 6 ------- null}
- -t 8.69005752 -s 3 -d 2 -p ack -e 40 -c 1 -i 24 -a 1 -x {4.0 0.0 6 ------- null}
h -t 8.69005752 -s 3 -d 2 -p ack -e 40 -c 1 -i 24 -a 1 -x {4.0 0.0 -1 ------- null}
r -t 8.69006552 -s 4 -d 3 -p ack -e 40 -c 1 -i 25 -a 1 -x {4.0 0.0 7 ------- null}
+ -t 8.69006552 -s 3 -d 2 -p ack -e 40 -c 1 -i 25 -a 1 -x {4.0 0.0 7 ------- null}
- -t 8.69006552 -s 3 -d 2 -p ack -e 40 -c 1 -i 25 -a 1 -x {4.0 0.0 7 ------- null}
h -t 8.69006552 -s 3 -d 2 -p ack -e 40 -c 1 -i 25 -a 1 -x {4.0 0.0 -1 ------- null}
r -t 8.74004984 -s 3 -d 2 -p ack -e 40 -c 1 -i 23 -a 1 -x {4.0 0.0 5 ------- null}
+ -t 8.74004984 -s 2 -d 0 -p ack -e 40 -c 1 -i 23 -a 1 -x {4.0 0.0 5 ------- null}
- -t 8.74004984 -s 2 -d 0 -p ack -e 40 -c 1 -i 23 -a 1 -x {4.0 0.0 5 ------- null}
h -t 8.74004984 -s 2 -d 0 -p ack -e 40 -c 1 -i 23 -a 1 -x {4.0 0.0 -1 ------- null}
r -t 8.74005784 -s 3 -d 2 -p ack -e 40 -c 1 -i 24 -a 1 -x {4.0 0.0 6 ------- null}
+ -t 8.74005784 -s 2 -d 0 -p ack -e 40 -c 1 -i 24 -a 1 -x {4.0 0.0 6 ------- null}
- -t 8.74005784 -s 2 -d 0 -p ack -e 40 -c 1 -i 24 -a 1 -x {4.0 0.0 6 ------- null}
h -t 8.74005784 -s 2 -d 0 -p ack -e 40 -c 1 -i 24 -a 1 -x {4.0 0.0 -1 ------- null}
r -t 8.74006584 -s 3 -d 2 -p ack -e 40 -c 1 -i 25 -a 1 -x {4.0 0.0 7 ------- null}
+ -t 8.74006584 -s 2 -d 0 -p ack -e 40 -c 1 -i 25 -a 1 -x {4.0 0.0 7 ------- null}
- -t 8.74006584 -s 2 -d 0 -p ack -e 40 -c 1 -i 25 -a 1 -x {4.0 0.0 7 ------- null}
h -t 8.74006584 -s 2 -d 0 -p ack -e 40 -c 1 -i 25 -a 1 -x {4.0 0.0 -1 ------- null}
r -t 8.98803256 -s 5 -d 3 -p ack -e 40 -c 2 -i 26 -a 2 -x {5.0 1.0 3 ------- null}
+ -t 8.98803256 -s 3 -d 2 -p ack -e 40 -c 2 -i 26 -a 2 -x {5.0 1.0 3 ------- null}
- -t 8.98803256 -s 3 -d 2 -p ack -e 40 -c 2 -i 26 -a 2 -x {5.0 1.0 3 ------- null}
h -t 8.98803256 -s 3 -d 2 -p ack -e 40 -c 2 -i 26 -a 2 -x {5.0 1.0 -1 ------- null}
r -t 9.03803288 -s 3 -d 2 -p ack -e 40 -c 2 -i 26 -a 2 -x {5.0 1.0 3 ------- null}
+ -t 9.03803288 -s 2 -d 1 -p ack -e 40 -c 2 -i 26 -a 2 -x {5.0 1.0 3 ------- null}
- -t 9.03803288 -s 2 -d 1 -p ack -e 40 -c 2 -i 26 -a 2 -x {5.0 1.0 3 ------- null}
h -t 9.03803288 -s 2 -d 1 -p ack -e 40 -c 2 -i 26 -a 2 -x {5.0 1.0 -1 ------- null}
r -t 9.29604992 -s 2 -d 0 -p ack -e 40 -c 1 -i 23 -a 1 -x {4.0 0.0 5 ------- null}
+ -t 9.29604992 -s 0 -d 2 -p tcp -e 1000 -c 1 -i 28 -a 1 -x {0.0 4.0 8 ------- null}
- -t 9.29604992 -s 0 -d 2 -p tcp -e 1000 -c 1 -i 28 -a 1 -x {0.0 4.0 8 ------- null}
h -t 9.29604992 -s 0 -d 2 -p tcp -e 1000 -c 1 -i 28 -a 1 -x {0.0 4.0 -1 ------- null}
+ -t 9.29604992 -s 0 -d 2 -p tcp -e 1000 -c 1 -i 29 -a 1 -x {0.0 4.0 9 ------- null}
- -t 9.29605192 -s 0 -d 2 -p tcp -e 1000 -c 1 -i 29 -a 1 -x {0.0 4.0 9 ------- null}
h -t 9.29605192 -s 0 -d 2 -p tcp -e 1000 -c 1 -i 29 -a 1 -x {0.0 4.0 -1 ------- null}
r -t 9.29605792 -s 2 -d 0 -p ack -e 40 -c 1 -i 24 -a 1 -x {4.0 0.0 6 ------- null}
+ -t 9.29605792 -s 0 -d 2 -p tcp -e 1000 -c 1 -i 30 -a 1 -x {0.0 4.0 10 ------- null}
- -t 9.29605792 -s 0 -d 2 -p tcp -e 1000 -c 1 -i 30 -a 1 -x {0.0 4.0 10 ------- null}
h -t 9.29605792 -s 0 -d 2 -p tcp -e 1000 -c 1 -i 30 -a 1 -x {0.0 4.0 -1 ------- null}
+ -t 9.29605792 -s 0 -d 2 -p tcp -e 1000 -c 1 -i 31 -a 1 -x {0.0 4.0 11 ------- null}
- -t 9.29605992 -s 0 -d 2 -p tcp -e 1000 -c 1 -i 31 -a 1 -x {0.0 4.0 11 ------- null}
h -t 9.29605992 -s 0 -d 2 -p tcp -e 1000 -c 1 -i 31 -a 1 -x {0.0 4.0 -1 ------- null}
r -t 9.29606592 -s 2 -d 0 -p ack -e 40 -c 1 -i 25 -a 1 -x {4.0 0.0 7 ------- null}
+ -t 9.29606592 -s 0 -d 2 -p tcp -e 1000 -c 1 -i 32 -a 1 -x {0.0 4.0 12 ------- null}
- -t 9.29606592 -s 0 -d 2 -p tcp -e 1000 -c 1 -i 32 -a 1 -x {0.0 4.0 12 ------- null}
h -t 9.29606592 -s 0 -d 2 -p tcp -e 1000 -c 1 -i 32 -a 1 -x {0.0 4.0 -1 ------- null}
+ -t 9.29606592 -s 0 -d 2 -p tcp -e 1000 -c 1 -i 33 -a 1 -x {0.0 4.0 13 ------- null}
- -t 9.29606792 -s 0 -d 2 -p tcp -e 1000 -c 1 -i 33 -a 1 -x {0.0 4.0 13 ------- null}
h -t 9.29606792 -s 0 -d 2 -p tcp -e 1000 -c 1 -i 33 -a 1 -x {0.0 4.0 -1 ------- null}
r -t 9.42403704 -s 5 -d 3 -p ack -e 40 -c 2 -i 27 -a 2 -x {5.0 1.0 4 ------- null}
+ -t 9.42403704 -s 3 -d 2 -p ack -e 40 -c 2 -i 27 -a 2 -x {5.0 1.0 4 ------- null}
- -t 9.42403704 -s 3 -d 2 -p ack -e 40 -c 2 -i 27 -a 2 -x {5.0 1.0 4 ------- null}
h -t 9.42403704 -s 3 -d 2 -p ack -e 40 -c 2 -i 27 -a 2 -x {5.0 1.0 -1 ------- null}
r -t 9.47403736 -s 3 -d 2 -p ack -e 40 -c 2 -i 27 -a 2 -x {5.0 1.0 4 ------- null}