V -t * -v 1.0a5 -a 0
A -t * -n 1 -p 0 -o 0x7fffffff -c 30 -a 1
A -t * -h 1 -m 1073741823 -s 0
c -t * -i 1 -n Blue
c -t * -i 2 -n Red
n -t * -a 4 -s 4 -S UP -v circle -c black -i black
n -t * -a 0 -s 0 -S UP -v circle -c black -i black
n -t * -a 5 -s 5 -S UP -v circle -c black -i black
n -t * -a 1 -s 1 -S UP -v circle -c black -i black
n -t * -a 2 -s 2 -S UP -v circle -c black -i black
n -t * -a 3 -s 3 -S UP -v circle -c black -i black
l -t * -s 0 -d 2 -S UP -r 4000000000 -D 0.54500000000000004 -c black -o right-down
l -t * -s 1 -d 2 -S UP -r 4000000000 -D 0.82300000000000006 -c black -o right-up
l -t * -s 2 -d 3 -S UP -r 1000000000 -D 0.050000000000000003 -c black -o right
l -t * -s 3 -d 4 -S UP -r 4000000000 -D 0.54500000000000004 -c black -o right-up
l -t * -s 3 -d 5 -S UP -r 4000000000 -D 0.82300000000000006 -c black -o right-down
+ -t 0 -s 1 -d 2 -p tcp -e 1000 -c 2 -i 0 -a 2 -x {1.0 5.0 0 ------- null}
- -t 0 -s 1 -d 2 -p tcp -e 1000 -c 2 -i 0 -a 2 -x {1.0 5.0 0 ------- null}
h -t 0 -s 1 -d 2 -p tcp -e 1000 -c 2 -i 0 -a 2 -x {1.0 5.0 -1 ------- null}
+ -t 0 -s 0 -d 2 -p tcp -e 1000 -c 1 -i 1 -a 1 -x {0.0 4.0 0 ------- null}
- -t 0 -s 0 -d 2 -p tcp -e 1000 -c 1 -i 1 -a 1 -x {0.0 4.0 0 ------- null}
h -t 0 -s 0 -d 2 -p tcp -e 1000 -c 1 -i 1 -a 1 -x {0.0 4.0 -1 ------- null}
r -t 0.545002 -s 0 -d 2 -p tcp -e 1000 -c 1 -i 1 -a 1 -x {0.0 4.0 0 ------- null}
+ -t 0.545002 -s 2 -d 3 -p tcp -e 1000 -c 1 -i 1 -a 1 -x {0.0 4.0 0 ------- null}
- -t 0.545002 -s 2 -d 3 -p tcp -e 1000 -c 1 -i 1 -a 1 -x {0.0 4.0 0 ------- null}
h -t 0.545002 -s 2 -d 3 -p tcp -e 1000 -c 1 -i 1 -a 1 -x {0.0 4.0 -1 ------- null}
r -t 0.59501 -s 2 -d 3 -p tcp -e 1000 -c 1 -i 1 -a 1 -x {0.0 4.0 0 ------- null}
+ -t 0.59501 -s 3 -d 4 -p tcp -e 1000 -c 1 -i 1 -a 1 -x {0.0 4.0 0 ------- null}
- -t 0.59501 -s 3 -d 4 -p tcp -e 1000 -c 1 -i 1 -a 1 -x {0.0 4.0 0 ------- null}
h -t 0.59501 -s 3 -d 4 -p tcp -e 1000 -c 1 -i 1 -a 1 -x {0.0 4.0 -1 ------- null}
r -t 0.823002 -s 1 -d 2 -p tcp -e 1000 -c 2 -i 0 -a 2 -x {1.0 5.0 0 ------- null}
+ -t 0.823002 -s 2 -d 3 -p tcp -e 1000 -c 2 -i 0 -a 2 -x {1.0 5.0 0 ------- null}
- -t 0.823002 -s 2 -d 3 -p tcp -e 1000 -c 2 -i 0 -a 2 -x {1.0 5.0 0 ------- null}
h -t 0.823002 -s 2 -d 3 -p tcp -e 1000 -c 2 -i 0 -a 2 -x {1.0 5.0 -1 ------- null}
r -t 0.87301 -s 2 -d 3 -p tcp -e 1000 -c 2 -i 0 -a 2 -x {1.0 5.0 0 ------- null}
+ -t 0.87301 -s 3 -d 5 -p tcp -e 1000 -c 2 -i 0 -a 2 -x {1.0 5.0 0 ------- null}
- -t 0.87301 -s 3 -d 5 -p tcp -e 1000 -c 2 -i 0 -a 2 -x {1.0 5.0 0 ------- null}
h -t 0.87301 -s 3 -d 5 -p tcp -e 1000 -c 2 -i 0 -a 2 -x {1.0 5.0 -1 ------- null}
r -t 1.140012 -s 3 -d 4 -p tcp -e 1000 -c 1 -i 1 -a 1 -x {0.0 4.0 0 ------- null}
+ -t 1.140012 -s 4 -d 3 -p ack -e 40 -c 1 -i 2 -a 1 -x {4.0 0.0 0 ------- null}
- -t 1.140012 -s 4 -d 3 -p ack -e 40 -c 1 -i 2 -a 1 -x {4.0 0.0 0 ------- null}
h -t 1.140012 -s 4 -d 3 -p ack -e 40 -c 1 -i 2 -a 1 -x {4.0 0.0 -1 ------- null}
r -t 1.68501208 -s 4 -d 3 -p ack -e 40 -c 1 -i 2 -a 1 -x {4.0 0.0 0 ------- null}
+ -t 1.68501208 -s 3 -d 2 -p ack -e 40 -c 1 -i 2 -a 1 -x {4.0 0.0 0 ------- null}
- -t 1.68501208 -s 3 -d 2 -p ack -e 40 -c 1 -i 2 -a 1 -x {4.0 0.0 0 ------- null}
h -t 1.68501208 -s 3 -d 2 -p ack -e 40 -c 1 -i 2 -a 1 -x {4.0 0.0 -1 ------- null}
r -t 1.696012 -s 3 -d 5 -p tcp -e 1000 -c 2 -i 0 -a 2 -x {1.0 5.0 0 ------- null}
+ -t 1.696012 -s 5 -d 3 -p ack -e 40 -c 2 -i 3 -a 2 -x {5.0 1.0 0 ------- null}
- -t 1.696012 -s 5 -d 3 -p ack -e 40 -c 2 -i 3 -a 2 -x {5.0 1.0 0 ------- null}
h -t 1.696012 -s 5 -d 3 -p ack -e 40 -c 2 -i 3 -a 2 -x {5.0 1.0 -1 ------- null}
r -t 1.7350124 -s 3 -d 2 -p ack -e 40 -c 1 -i 2 -a 1 -x {4.0 0.0 0 ------- null}
+ -t 1.7350124 -s 2 -d 0 -p ack -e 40 -c 1 -i 2 -a 1 -x {4.0 0.0 0 ------- null}
- -t 1.7350124 -s 2 -d 0 -p ack -e 40 -c 1 -i 2 -a 1 -x {4.0 0.0 0 ------- null}
h -t 1.7350124 -s 2 -d 0 -p ack -e 40 -c 1 -i 2 -a 1 -x {4.0 0.0 -1 ------- null}
r -t 2.28001248 -s 2 -d 0 -p ack -e 40 -c 1 -i 2 -a 1 -x {4.0 0.0 0 ------- null}
+ -t 2.28001248 -s 0 -d 2 -p tcp -e 1000 -c 1 -i 4 -a 1 -x {0.0 4.0 1 ------- null}
- -t 2.28001248 -s 0 -d 2 -p tcp -e 1000 -c 1 -i 4 -a 1 -x {0.0 4.0 1 ------- null}
h -t 2.28001248 -s 0 -d 2 -p tcp -e 1000 -c 1 -i 4 -a 1 -x {0.0 4.0 -1 ------- null}
r -t 2.51901208 -s 5 -d 3 -p ack -e 40 -c 2 -i 3 -a 2 -x {5.0 1.0 0 ------- null}
+ -t 2.51901208 -s 3 -d 2 -p ack -e 40 -c 2 -i 3 -a 2 -x {5.0 1.0 0 ------- null}
- -t 2.51901208 -s 3 -d 2 -p ack -e 40 -c 2 -i 3 -a 2 -x {5.0 1.0 0 ------- null}
h -t 2.51901208 -s 3 -d 2 -p ack -e 40 -c 2 -i 3 -a 2 -x {5.0 1.0 -1 ------- null}
r -t 2.5690124 -s 3 -d 2 -p ack -e 40 -c 2 -i 3 -a 2 -x {5.0 1.0 0 ------- null}
+ -t 2.5690124 -s 2 -d 1 -p ack -e 40 -c 2 -i 3 -a 2 -x {5.0 1.0 0 ------- null}
- -t 2.5690124 -s 2 -d 1 -p ack -e 40 -c 2 -i 3 -a 2 -x {5.0 1.0 0 ------- null}
h -t 2.5690124 -s 2 -d 1 -p ack -e 40 -c 2 -i 3 -a 2 -x {5.0 1.0 -1 ------- null}
r -t 2.82501448 -s 0 -d 2 -p tcp -e 1000 -c 1 -i 4 -a 1 -x {0.0 4.0 1 ------- null}
+ -t 2.82501448 -s 2 -d 3 -p tcp -e 1000 -c 1 -i 4 -a 1 -x {0.0 4.0 1 ------- null}
- -t 2.82501448 -s 2 -d 3 -p tcp -e 1000 -c 1 -i 4 -a 1 -x {0.0 4.0 1 ------- null}
h -t 2.82501448 -s 2 -d 3 -p tcp -e 1000 -c 1 -i 4 -a 1 -x {0.0 4.0 -1 ------- null}
r -t 2.87502248 -s 2 -d 3 -p tcp -e 1000 -c 1 -i 4 -a 1 -x {0.0 4.0 1 ------- null}
+ -t 2.87502248 -s 3 -d 4 -p tcp -e 1000 -c 1 -i 4 -a 1 -x {0.0 4.0 1 ------- null}
- -t 2.87502248 -s 3 -d 4 -p tcp -e 1000 -c 1 -i 4 -a 1 -x {0.0 4.0 1 ------- null}
h -t 2.87502248 -s 3 -d 4 -p tcp -e 1000 -c 1 -i 4 -a 1 -x {0.0 4.0 -1 ------- null}
+ -t 3 -s 1 -d 2 -p tcp -e 1000 -c 2 -i 5 -a 2 -x {1.0 5.0 0 ------- null}
- -t 3 -s 1 -d 2 -p tcp -e 1000 -c 2 -i 5 -a 2 -x {1.0 5.0 0 ------- null}
h -t 3 -s 1 -d 2 -p tcp -e 1000 -c 2 -i 5 -a 2 -x {1.0 5.0 -1 ------- null}
+ -t 3 -s 1 -d 2 -p tcp -e 1000 -c 2 -i 6 -a 2 -x {1.0 5.0 1 ------- null}
- -t 3.000002 -s 1 -d 2 -p tcp -e 1000 -c 2 -i 6 -a 2 -x {1.0 5.0 1 ------- null}
h -t 3.000002 -s 1 -d 2 -p tcp -e 1000 -c 2 -i 6 -a 2 -x {1.0 5.0 -1 ------- null}
r -t 3.39201248 -s 2 -d 1 -p ack -e 40 -c 2 -i 3 -a 2 -x {5.0 1.0 0 ------- null}
+ -t 3.39201248 -s 1 -d 2 -p tcp -e 1000 -c 2 -i 7 -a 2 -x {1.0 5.0 2 ------- null}
- -t 3.39201248 -s 1 -d 2 -p tcp -e 1000 -c 2 -i 7 -a 2 -x {1.0 5.0 2 ------- null}
h -t 3.39201248 -s 1 -d 2 -p tcp -e 1000 -c 2 -i 7 -a 2 -x {1.0 5.0 -1 ------- null}
r -t 3.42002448 -s 3 -d 4 -p tcp -e 1000 -c 1 -i 4 -a 1 -x {0.0 4.0 1 ------- null}
+ -t 3.42002448 -s 4 -d 3 -p ack -e 40 -c 1 -i 8 -a 1 -x {4.0 0.0 1 ------- null}
- -t 3.42002448 -s 4 -d 3 -p ack -e 40 -c 1 -i 8 -a 1 -x {4.0 0.0 1 ------- null}
h -t 3.42002448 -s 4 -d 3 -p ack -e 40 -c 1 -i 8 -a 1 -x {4.0 0.0 -1 ------- null}
r -t 3.823002 -s 1 -d 2 -p tcp -e 1000 -c 2 -i 5 -a 2 -x {1.0 5.0 0 ------- null}
+ -t 3.823002 -s 2 -d 3 -p tcp -e 1000 -c 2 -i 5 -a 2 -x {1.0 5.0 0 ------- null}
- -t 3.823002 -s 2 -d 3 -p tcp -e 1000 -c 2 -i 5 -a 2 -x {1.0 5.0 0 ------- null}
h -t 3.823002 -s 2 -d 3 -p tcp -e 1000 -c 2 -i 5 -a 2 -x {1.0 5.0 -1 ------- null}
r -t 3.823004 -s 1 -d 2 -p tcp -e 1000 -c 2 -i 6 -a 2 -x {1.0 5.0 1 ------- null}
+ -t 3.823004 -s 2 -d 3 -p tcp -e 1000 -c 2 -i 6 -a 2 -x {1.0 5.0 1 ------- null}
- -t 3.82301 -s 2 -d 3 -p tcp -e 1000 -c 2 -i 6 -a 2 -x {1.0 5.0 1 ------- null}
h -t 3.82301 -s 2 -d 3 -p tcp -e 1000 -c 2 -i 6 -a 2 -x {1.0 5.0 -1 ------- null}
r -t 3.87301 -s 2 -d 3 -p tcp -e 1000 -c 2 -i 5 -a 2 -x {1.0 5.0 0 ------- null}
+ -t 3.87301 -s 3 -d 5 -p tcp -e 1000 -c 2 -i 5 -a 2 -x {1.0 5.0 0 ------- null}
- -t 3.87301 -s 3 -d 5 -p tcp -e 1000 -c 2 -i 5 -a 2 -x {1.0 5.0 0 ------- null}
h -t 3.87301 -s 3 -d 5 -p tcp -e 1000 -c 2 -i 5 -a 2 -x {1.0 5.0 -1 ------- null}
r -t 3.873018 -s 2 -d 3 -p tcp -e 1000 -c 2 -i 6 -a 2 -x {1.0 5.0 1 ------- null}
+ -t 3.873018 -s 3 -d 5 -p tcp -e 1000 -c 2 -i 6 -a 2 -x {1.0 5.0 1 ------- null}
- -t 3.873018 -s 3 -d 5 -p tcp -e 1000 -c 2 -i 6 -a 2 -x {1.0 5.0 1 ------- null}
h -t 3.873018 -s 3 -d 5 -p tcp -e 1000 -c 2 -i 6 -a 2 -x {1.0 5.0 -1 ------- null}
r -t 3.96502456 -s 4 -d 3 -p ack -e 40 -c 1 -i 8 -a 1 -x {4.0 0.0 1 ------- null}
+ -t 3.96502456 -s 3 -d 2 -p ack -e 40 -c 1 -i 8 -a 1 -x {4.0 0.0 1 ------- null}
- -t 3.96502456 -s 3 -d 2 -p ack -e 40 -c 1 -i 8 -a 1 -x {4.0 0.0 1 ------- null}
h -t 3.96502456 -s 3 -d 2 -p ack -e 40 -c 1 -i 8 -a 1 -x {4.0 0.0 -1 ------- null}
r -t 4.01502488 -s 3 -d 2 -p ack -e 40 -c 1 -i 8 -a 1 -x {4.0 0.0 1 ------- null}
+ -t 4.01502488 -s 2 -d 0 -p ack -e 40 -c 1 -i 8 -a 1 -x {4.0 0.0 1 ------- null}
- -t 4.01502488 -s 2 -d 0 -p ack -e 40 -c 1 -i 8 -a 1 -x {4.0 0.0 1 ------- null}
h -t 4.01502488 -s 2 -d 0 -p ack -e 40 -c 1 -i 8 -a 1 -x {4.0 0.0 -1 ------- null}
r -t 4.21501448 -s 1 -d 2 -p tcp -e 1000 -c 2 -i 7 -a 2 -x {1.0 5.0 2 ------- null}
+ -t 4.21501448 -s 2 -d 3 -p tcp -e 1000 -c 2 -i 7 -a 2 -x {1.0 5.0 2 ------- null}
- -t 4.21501448 -s 2 -d 3 -p tcp -e 1000 -c 2 -i 7 -a 2 -x {1.0 5.0 2 ------- null}
h -t 4.21501448 -s 2 -d 3 -p tcp -e 1000 -c 2 -i 7 -a 2 -x {1.0 5.0 -1 ------- null}
r -t 4.26502248 -s 2 -d 3 -p tcp -e 1000 -c 2 -i 7 -a 2 -x {1.0 5.0 2 ------- null}
+ -t 4.26502248 -s 3 -d 5 -p tcp -e 1000 -c 2 -i 7 -a 2 -x {1.0 5.0 2 ------- null}
- -t 4.26502248 -s 3 -d 5 -p tcp -e 1000 -c 2 -i 7 -a 2 -x {1.0 5.0 2 ------- null}
h -t 4.26502248 -s 3 -d 5 -p tcp -e 1000 -c 2 -i 7 -a 2 -x {1.0 5.0 -1 ------- null}
r -t 4.56002496 -s 2 -d 0 -p ack -e 40 -c 1 -i 8 -a 1 -x {4.0 0.0 1 ------- null}
+ -t 4.56002496 -s 0 -d 2 -p tcp -e 1000 -c 1 -i 9 -a 1 -x {0.0 4.0 2 ------- null}
- -t 4.56002496 -s 0 -d 2 -p tcp -e 1000 -c 1 -i 9 -a 1 -x {0.0 4.0 2 ------- null}
h -t 4.56002496 -s 0 -d 2 -p tcp -e 1000 -c 1 -i 9 -a 1 -x {0.0 4.0 -1 ------- null}
+ -t 4.56002496 -s 0 -d 2 -p tcp -e 1000 -c 1 -i 10 -a 1 -x {0.0 4.0 3 ------- null}
+ -t 4.56002496 -s 0 -d 2 -p tcp -e 1000 -c 1 -i 11 -a 1 -x {0.0 4.0 4 ------- null}
- -t 4.56002696 -s 0 -d 2 -p tcp -e 1000 -c 1 -i 10 -a 1 -x {0.0 4.0 3 ------- null}
h -t 4.56002696 -s 0 -d 2 -p tcp -e 1000 -c 1 -i 10 -a 1 -x {0.0 4.0 -1 ------- null}
- -t 4.56002896 -s 0 -d 2 -p tcp -e 1000 -c 1 -i 11 -a 1 -x {0.0 4.0 4 ------- null}
h -t 4.56002896 -s 0 -d 2 -p tcp -e 1000 -c 1 -i 11 -a 1 -x {0.0 4.0 -1 ------- null}
r -t 4.696012 -s 3 -d 5 -p tcp -e 1000 -c 2 -i 5 -a 2 -x {1.0 5.0 0 ------- null}
+ -t 4.696012 -s 5 -d 3 -p ack -e 40 -c 2 -i 12 -a 2 -x {5.0 1.0 0 ------- null}
- -t 4.696012 -s 5 -d 3 -p ack -e 40 -c 2 -i 12 -a 2 -x {5.0 1.0 0 ------- null}
h -t 4.696012 -s 5 -d 3 -p ack -e 40 -c 2 -i 12 -a 2 -x {5.0 1.0 -1 ------- null}
r -t 4.69602 -s 3 -d 5 -p tcp -e 1000 -c 2 -i 6 -a 2 -x {1.0 5.0 1 ------- null}
+ -t 4.69602 -s 5 -d 3 -p ack -e 40 -c 2 -i 13 -a 2 -x {5.0 1.0 1 ------- null}
- -t 4.69602 -s 5 -d 3 -p ack -e 40 -c 2 -i 13 -a 2 -x {5.0 1.0 1 ------- null}
h -t 4.69602 -s 5 -d 3 -p ack -e 40 -c 2 -i 13 -a 2 -x {5.0 1.0 -1 ------- null}
r -t 5.08802448 -s 3 -d 5 -p tcp -e 1000 -c 2 -i 7 -a 2 -x {1.0 5.0 2 ------- null}
+ -t 5.08802448 -s 5 -d 3 -p ack -e 40 -c 2 -i 14 -a 2 -x {5.0 1.0 2 ------- null}
- -t 5.08802448 -s 5 -d 3 -p ack -e 40 -c 2 -i 14 -a 2 -x {5.0 1.0 2 ------- null}
h -t 5.08802448 -s 5 -d 3 -p ack -e 40 -c 2 -i 14 -a 2 -x {5.0 1.0 -1 ------- null}
r -t 5.10502696 -s 0 -d 2 -p tcp -e 1000 -c 1 -i 9 -a 1 -x {0.0 4.0 2 ------- null}
+ -t 5.10502696 -s 2 -d 3 -p tcp -e 1000 -c 1 -i 9 -a 1 -x {0.0 4.0 2 ------- null}
- -t 5.10502696 -s 2 -d 3 -p tcp -e 1000 -c 1 -i 9 -a 1 -x {0.0 4.0 2 ------- null}
h -t 5.10502696 -s 2 -d 3 -p tcp -e 1000 -c 1 -i 9 -a 1 -x {0.0 4.0 -1 ------- null}
r -t 5.10502896 -s 0 -d 2 -p tcp -e 1000 -c 1 -i 10 -a 1 -x {0.0 4.0 3 ------- null}
+ -t 5.10502896 -s 2 -d 3 -p tcp -e 1000 -c 1 -i 10 -a 1 -x {0.0 4.0 3 ------- null}
r -t 5.10503096 -s 0 -d 2 -p tcp -e 1000 -c 1 -i 11 -a 1 -x {0.0 4.0 4 ------- null}
+ -t 5.10503096 -s 2 -d 3 -p tcp -e 1000 -c 1 -i 11 -a 1 -x {0.0 4.0 4 ------- null}
- -t 5.10503496 -s 2 -d 3 -p tcp -e 1000 -c 1 -i 10 -a 1 -x {0.0 4.0 3 ------- null}
h -t 5.10503496 -s 2 -d 3 -p tcp -e 1000 -c 1 -i 10 -a 1 -x {0.0 4.0 -1 ------- null}
- -t 5.10504296 -s 2 -d 3 -p tcp -e 1000 -c 1 -i 11 -a 1 -x {0.0 4.0 4 ------- null}
h -t 5.10504296 -s 2 -d 3 -p tcp -e 1000 -c 1 -i 11 -a 1 -x {0.0 4.0 -1 ------- null}
r -t 5.15503496 -s 2 -d 3 -p tcp -e 1000 -c 1 -i 9 -a 1 -x {0.0 4.0 2 ------- null}
+ -t 5.15503496 -s 3 -d 4 -p tcp -e 1000 -c 1 -i 9 -a 1 -x {0.0 4.0 2 ------- null}
- -t 5.15503496 -s 3 -d 4 -p tcp -e 1000 -c 1 -i 9 -a 1 -x {0.0 4.0 2 ------- null}
h -t 5.15503496 -s 3 -d 4 -p tcp -e 1000 -c 1 -i 9 -a 1 -x {0.0 4.0 -1 ------- null}
r -t 5.15504296 -s 2 -d 3 -p tcp -e 1000 -c 1 -i 10 -a 1 -x {0.0 4.0 3 ------- null}
+ -t 5.15504296 -s 3 -d 4 -p tcp -e 1000 -c 1 -i 10 -a 1 -x {0.0 4.0 3 ------- null}
- -t 5.15504296 -s 3 -d 4 -p tcp -e 1000 -c 1 -i 10 -a 1 -x {0.0 4.0 3 ------- null}
h -t 5.15504296 -s 3 -d 4 -p tcp -e 1000 -c 1 -i 10 -a 1 -x {0.0 4.0 -1 ------- null}
r -t 5.15505096 -s 2 -d 3 -p tcp -e 1000 -c 1 -i 11 -a 1 -x {0.0 4.0 4 ------- null}
+ -t 5.15505096 -s 3 -d 4 -p tcp -e 1000 -c 1 -i 11 -a 1 -x {0.0 4.0 4 ------- null}
- -t 5.15505096 -s 3 -d 4 -p tcp -e 1000 -c 1 -i 11 -a 1 -x {0.0 4.0 4 ------- null}
h -t 5.15505096 -s 3 -d 4 -p tcp -e 1000 -c 1 -i 11 -a 1 -x {0.0 4.0 -1 ------- null}
r -t 5.51901208 -s 5 -d 3 -p ack -e 40 -c 2 -i 12 -a 2 -x {5.0 1.0 0 ------- null}
+ -t 5.51901208 -s 3 -d 2 -p ack -e 40 -c 2 -i 12 -a 2 -x {5.0 1.0 0 ------- null}
- -t 5.51901208 -s 3 -d 2 -p ack -e 40 -c 2 -i 12 -a 2 -x {5.0 1.0 0 ------- null}
h -t 5.51901208 -s 3 -d 2 -p ack -e 40 -c 2 -i 12 -a 2 -x {5.0 1.0 -1 ------- null}
r -t 5.51902008 -s 5 -d 3 -p ack -e 40 -c 2 -i 13 -a 2 -x {5.0 1.0 1 ------- null}
+ -t 5.51902008 -s 3 -d 2 -p ack -e 40 -c 2 -i 13 -a 2 -x {5.0 1.0 1 ------- null}
- -t 5.51902008 -s 3 -d 2 -p ack -e 40 -c 2 -i 13 -a 2 -x {5.0 1.0 1 ------- null}
h -t 5.51902008 -s 3 -d 2 -p ack -e 40 -c 2 -i 13 -a 2 -x {5.0 1.0 -1 ------- null}
r -t 5.5690124 -s 3 -d 2 -p ack -e 40 -c 2 -i 12 -a 2 -x {5.0 1.0 0 ------- null}
+ -t 5.5690124 -s 2 -d 1 -p ack -e 40 -c 2 -i 12 -a 2 -x {5.0 1.0 0 ------- null}
- -t 5.5690124 -s 2 -d 1 -p ack -e 40 -c 2 -i 12 -a 2 -x {5.0 1.0 0 ------- null}
h -t 5.5690124 -s 2 -d 1 -p ack -e 40 -c 2 -i 12 -a 2 -x {5.0 1.0 -1 ------- null}
r -t 5.5690204 -s 3 -d 2 -p ack -e 40 -c 2 -i 13 -a 2 -x {5.0 1.0 1 ------- null}
+ -t 5.5690204 -s 2 -d 1 -p ack -e 40 -c 2 -i 13 -a 2 -x {5.0 1.0 1 ------- null}
- -t 5.5690204 -s 2 -d 1 -p ack -e 40 -c 2 -i 13 -a 2 -x {5.0 1.0 1 ------- null}
h -t 5.5690204 -s 2 -d 1 -p ack -e 40 -c 2 -i 13 -a 2 -x {5.0 1.0 -1 ------- null}
r -t 5.70003696 -s 3 -d 4 -p tcp -e 1000 -c 1 -i 9 -a 1 -x {0.0 4.0 2 ------- null}
+ -t 5.70003696 -s 4 -d 3 -p ack -e 40 -c 1 -i 15 -a 1 -x {4.0 0.0 2 ------- null}
- -t 5.70003696 -s 4 -d 3 -p ack -e 40 -c 1 -i 15 -a 1 -x {4.0 0.0 2 ------- null}
h -t 5.70003696 -s 4 -d 3 -p ack -e 40 -c 1 -i 15 -a 1 -x {4.0 0.0 -1 ------- null}
r -t 5.70004496 -s 3 -d 4 -p tcp -e 1000 -c 1 -i 10 -a 1 -x {0.0 4.0 3 ------- null}
+ -t 5.70004496 -s 4 -d 3 -p ack -e 40 -c 1 -i 16 -a 1 -x {4.0 0.0 3 ------- null}
- -t 5.70004496 -s 4 -d 3 -p ack -e 40 -c 1 -i 16 -a 1 -x {4.0 0.0 3 ------- null}
h -t 5.70004496 -s 4 -d 3 -p ack -e 40 -c 1 -i 16 -a 1 -x {4.0 0.0 -1 ------- null}
r -t 5.70005296 -s 3 -d 4 -p tcp -e 1000 -c 1 -i 11 -a 1 -x {0.0 4.0 4 ------- null}
+ -t 5.70005296 -s 4 -d 3 -p ack -e 40 -c 1 -i 17 -a 1 -x {4.0 0.0 4 ------- null}
- -t 5.70005296 -s 4 -d 3 -p ack -e 40 -c 1 -i 17 -a 1 -x {4.0 0.0 4 ------- null}
h -t 5.70005296 -s 4 -d 3 -p ack -e 40 -c 1 -i 17 -a 1 -x {4.0 0.0 -1 ------- null}
r -t 5.91102456 -s 5 -d 3 -p ack -e 40 -c 2 -i 14 -a 2 -x {5.0 1.0 2 ------- null}
+ -t 5.91102456 -s 3 -d 2 -p ack -e 40 -c 2 -i 14 -a 2 -x {5.0 1.0 2 ------- null}
- -t 5.91102456 -s 3 -d 2 -p ack -e 40 -c 2 -i 14 -a 2 -x {5.0 1.0 2 ------- null}
h -t 5.91102456 -s 3 -d 2 -p ack -e 40 -c 2 -i 14 -a 2 -x {5.0 1.0 -1 ------- null}
r -t 5.96102488 -s 3 -d 2 -p ack -e 40 -c 2 -i 14 -a 2 -x {5.0 1.0 2 ------- null}
+ -t 5.96102488 -s 2 -d 1 -p ack -e 40 -c 2 -i 14 -a 2 -x {5.0 1.0 2 ------- null}
- -t 5.96102488 -s 2 -d 1 -p ack -e 40 -c 2 -i 14 -a 2 -x {5.0 1.0 2 ------- null}
h -t 5.96102488 -s 2 -d 1 -p ack -e 40 -c 2 -i 14 -a 2 -x {5.0 1.0 -1 ------- null}
r -t 6.24503704 -s 4 -d 3 -p ack -e 40 -c 1 -i 15 -a 1 -x {4.0 0.0 2 ------- null}
+ -t 6.24503704 -s 3 -d 2 -p ack -e 40 -c 1 -i 15 -a 1 -x {4.0 0.0 2 ------- null}
- -t 6.24503704 -s 3 -d 2 -p ack -e 40 -c 1 -i 15 -a 1 -x {4.0 0.0 2 ------- null}
h -t 6.24503704 -s 3 -d 2 -p ack -e 40 -c 1 -i 15 -a 1 -x {4.0 0.0 -1 ------- null}
r -t 6.24504504 -s 4 -d 3 -p ack -e 40 -c 1 -i 16 -a 1 -x {4.0 0.0 3 ------- null}
+ -t 6.24504504 -s 3 -d 2 -p ack -e 40 -c 1 -i 16 -a 1 -x {4.0 0.0 3 ------- null}
- -t 6.24504504 -s 3 -d 2 -p ack -e 40 -c 1 -i 16 -a 1 -x {4.0 0.0 3 ------- null}
h -t 6.24504504 -s 3 -d 2 -p ack -e 40 -c 1 -i 16 -a 1 -x {4.0 0.0 -1 ------- null}
r -t 6.24505304 -s 4 -d 3 -p ack -e 40 -c 1 -i 17 -a 1 -x {4.0 0.0 4 ------- null}
+ -t 6.24505304 -s 3 -d 2 -p ack -e 40 -c 1 -i 17 -a 1 -x {4.0 0.0 4 ------- null}
- -t 6.24505304 -s 3 -d 2 -p ack -e 40 -c 1 -i 17 -a 1 -x {4.0 0.0 4 ------- null}
h -t 6.24505304 -s 3 -d 2 -p ack -e 40 -c 1 -i 17 -a 1 -x {4.0 0.0 -1 ------- null}
r -t 6.29503736 -s 3 -d 2 -p ack -e 40 -c 1 -i 15 -a 1 -x {4.0 0.0 2 ------- null}
+ -t 6.29503736 -s 2 -d 0 -p ack -e 40 -c 1 -i 15 -a 1 -x {4.0 0.0 2 ------- null}
- -t 6.29503736 -s 2 -d 0 -p ack -e 40 -c 1 -i 15 -a 1 -x {4.0 0.0 2 ------- null}
h -t 6.29503736 -s 2 -d 0 -p ack -e 40 -c 1 -i 15 -a 1 -x {4.0 0.0 -1 ------- null}
r -t 6.29504536 -s 3 -d 2 -p ack -e 40 -c 1 -i 16 -a 1 -x {4.0 0.0 3 ------- null}
+ -t 6.29504536 -s 2 -d 0 -p ack -e 40 -c 1 -i 16 -a 1 -x {4.0 0.0 3 ------- null}
- -t 6.29504536 -s 2 -d 0 -p ack -e 40 -c 1 -i 16 -a 1 -x {4.0 0.0 3 ------- null}
h -t 6.29504536 -s 2 -d 0 -p ack -e 40 -c 1 -i 16 -a 1 -x {4.0 0.0 -1 ------- null}
r -t 6.29505336 -s 3 -d 2 -p ack -e 40 -c 1 -i 17 -a 1 -x {4.0 0.0 4 ------- null}
+ -t 6.29505336 -s 2 -d 0 -p ack -e 40 -c 1 -i 17 -a 1 -x {4.0 0.0 4 ------- null}
- -t 6.29505336 -s 2 -d 0 -p ack -e 40 -c 1 -i 17 -a 1 -x {4.0 0.0 4 ------- null}
h -t 6.29505336 -s 2 -d 0 -p ack -e 40 -c 1 -i 17 -a 1 -x {4.0 0.0 -1 ------- null}
r -t 6.39201248 -s 2 -d 1 -p ack -e 40 -c 2 -i 12 -a 2 -x {5.0 1.0 0 ------- null}
r -t 6.39202048 -s 2 -d 1 -p ack -e 40 -c 2 -i 13 -a 2 -x {5.0 1.0 1 ------- null}
+ -t 6.39202048 -s 1 -d 2 -p tcp -e 1000 -c 2 -i 18 -a 2 -x {1.0 5.0 3 ------- null}
- -t 6.39202048 -s 1 -d 2 -p tcp -e 1000 -c 2 -i 18 -a 2 -x {1.0 5.0 3 ------- null}
h -t 6.39202048 -s 1 -d 2 -p tcp -e 1000 -c 2 -i 18 -a 2 -x {1.0 5.0 -1 ------- null}
r -t 6.78402496 -s 2 -d 1 -p ack -e 40 -c 2 -i 14 -a 2 -x {5.0 1.0 2 ------- null}
+ -t 6.78402496 -s 1 -d 2 -p tcp -e 1000 -c 2 -i 19 -a 2 -x {1.0 5.0 4 ------- null}
- -t 6.78402496 -s 1 -d 2 -p tcp -e 1000 -c 2 -i 19 -a 2 -x {1.0 5.0 4 ------- null}
h -t 6.78402496 -s 1 -d 2 -p tcp -e 1000 -c 2 -i 19 -a 2 -x {1.0 5.0 -1 ------- null}
r -t 6.84003744 -s 2 -d 0 -p ack -e 40 -c 1 -i 15 -a 1 -x {4.0 0.0 2 ------- null}
+ -t 6.84003744 -s 0 -d 2 -p tcp -e 1000 -c 1 -i 20 -a 1 -x {0.0 4.0 5 ------- null}
- -t 6.84003744 -s 0 -d 2 -p tcp -e 1000 -c 1 -i 20 -a 1 -x {0.0 4.0 5 ------- null}
h -t 6.84003744 -s 0 -d 2 -p tcp -e 1000 -c 1 -i 20 -a 1 -x {0.0 4.0 -1 ------- null}
r -t 6.84004544 -s 2 -d 0 -p ack -e 40 -c 1 -i 16 -a 1 -x {4.0 0.0 3 ------- null}
+ -t 6.84004544 -s 0 -d 2 -p tcp -e 1000 -c 1 -i 21 -a 1 -x {0.0 4.0 6 ------- null}
- -t 6.84004544 -s 0 -d 2 -p tcp -e 1000 -c 1 -i 21 -a 1 -x {0.0 4.0 6 ------- null}
h -t 6.84004544 -s 0 -d 2 -p tcp -e 1000 -c 1 -i 21 -a 1 -x {0.0 4.0 -1 ------- null}
r -t 6.84005344 -s 2 -d 0 -p ack -e 40 -c 1 -i 17 -a 1 -x {4.0 0.0 4 ------- null}
+ -t 6.84005344 -s 0 -d 2 -p tcp -e 1000 -c 1 -i 22 -a 1 -x {0.0 4.0 7 ------- null}
- -t 6.84005344 -s 0 -d 2 -p tcp -e 1000 -c 1 -i 22 -a 1 -x {0.0 4.0 7 ------- null}
h -t 6.84005344 -s 0 -d 2 -p tcp -e 1000 -c 1 -i 22 -a 1 -x {0.0 4.0 -1 ------- null}
r -t 7.21502248 -s 1 -d 2 -p tcp -e 1000 -c 2 -i 18 -a 2 -x {1.0 5.0 3 ------- null}
+ -t 7.21502248 -s 2 -d 3 -p tcp -e 1000 -c 2 -i 18 -a 2 -x {1.0 5.0 3 ------- null}
- -t 7.21502248 -s 2 -d 3 -p tcp -e 1000 -c 2 -i 18 -a 2 -x {1.0 5.0 3 ------- null}
h -t 7.21502248 -s 2 -d 3 -p tcp -e 1000 -c 2 -i 18 -a 2 -x {1.0 5.0 -1 ------- null}
r -t 7.26503048 -s 2 -d 3 -p tcp -e 1000 -c 2 -i 18 -a 2 -x {1.0 5.0 3 ------- null}
+ -t 7.26503048 -s 3 -d 5 -p tcp -e 1000 -c 2 -i 18 -a 2 -x {1.0 5.0 3 ------- null}
- -t 7.26503048 -s 3 -d 5 -p tcp -e 1000 -c 2 -i 18 -a 2 -x {1.0 5.0 3 ------- null}
h -t 7.26503048 -s 3 -d 5 -p tcp -e 1000 -c 2 -i 18 -a 2 -x {1.0 5.0 -1 ------- null}
r -t 7.38503944 -s 0 -d 2 -p tcp -e 1000 -c 1 -i 20 -a 1 -x {0.0 4.0 5 ------- null}
+ -t 7.38503944 -s 2 -d 3 -p tcp -e 1000 -c 1 -i 20 -a 1 -x {0.0 4.0 5 ------- null}
- -t 7.38503944 -s 2 -d 3 -p tcp -e 1000 -c 1 -i 20 -a 1 -x {0.0 4.0 5 ------- null}
h -t 7.38503944 -s 2 -d 3 -p tcp -e 1000 -c 1 -i 20 -a 1 -x {0.0 4.0 -1 ------- null}
r -t 7.38504744 -s 0 -d 2 -p tcp -e 1000 -c 1 -i 21 -a 1 -x {0.0 4.0 6 ------- null}
+ -t 7.38504744 -s 2 -d 3 -p tcp -e 1000 -c 1 -i 21 -a 1 -x {0.0 4.0 6 ------- null}
- -t 7.38504744 -s 2 -d 3 -p tcp -e 1000 -c 1 -i 21 -a 1 -x {0.0 4.0 6 ------- null}
h -t 7.38504744 -s 2 -d 3 -p tcp -e 1000 -c 1 -i 21 -a 1 -x {0.0 4.0 -1 ------- null}
r -t 7.38505544 -s 0 -d 2 -p tcp -e 1000 -c 1 -i 22 -a 1 -x {0.0 4.0 7 ------- null}
+ -t 7.38505544 -s 2 -d 3 -p tcp -e 1000 -c 1 -i 22 -a 1 -x {0.0 4.0 7 ------- null}
- -t 7.38505544 -s 2 -d 3 -p tcp -e 1000 -c 1 -i 22 -a 1 -x {0.0 4.0 7 ------- null}
h -t 7.38505544 -s 2 -d 3 -p tcp -e 1000 -c 1 -i 22 -a 1 -x {0.0 4.0 -1 ------- null}
r -t 7.43504744 -s 2 -d 3 -p tcp -e 1000 -c 1 -i 20 -a 1 -x {0.0 4.0 5 ------- null}
+ -t 7.43504744 -s 3 -d 4 -p tcp -e 1000 -c 1 -i 20 -a 1 -x {0.0 4.0 5 ------- null}
- -t 7.43504744 -s 3 -d 4 -p tcp -e 1000 -c 1 -i 20 -a 1 -x {0.0 4.0 5 ------- null}
h -t 7.43504744 -s 3 -d 4 -p tcp -e 1000 -c 1 -i 20 -a 1 -x {0.0 4.0 -1 ------- null}
r -t 7.43505544 -s 2 -d 3 -p tcp -e 1000 -c 1 -i 21 -a 1 -x {0.0 4.0 6 ------- null}
+ -t 7.43505544 -s 3 -d 4 -p tcp -e 1000 -c 1 -i 21 -a 1 -x {0.0 4.0 6 ------- null}
- -t 7.43505544 -s 3 -d 4 -p tcp -e 1000 -c 1 -i 21 -a 1 -x {0.0 4.0 6 ------- null}
h -t 7.43505544 -s 3 -d 4 -p tcp -e 1000 -c 1 -i 21 -a 1 -x {0.0 4.0 -1 ------- null}
r -t 7.43506344 -s 2 -d 3 -p tcp -e 1000 -c 1 -i 22 -a 1 -x {0.0 4.0 7 ------- null}
+ -t 7.43506344 -s 3 -d 4 -p tcp -e 1000 -c 1 -i 22 -a 1 -x {0.0 4.0 7 ------- null}
- -t 7.43506344 -s 3 -d 4 -p tcp -e 1000 -c 1 -i 22 -a 1 -x {0.0 4.0 7 ------- null}
h -t 7.43506344 -s 3 -d 4 -p tcp -e 1000 -c 1 -i 22 -a 1 -x {0.0 4.0 -1 ------- null}
r -t 7.60702696 -s 1 -d 2 -p tcp -e 1000 -c 2 -i 19 -a 2 -x {1.0 5.0 4 ------- null}
+ -t 7.60702696 -s 2 -d 3 -p tcp -e 1000 -c 2 -i 19 -a 2 -x {1.0 5.0 4 ------- null}
- -t 7.60702696 -s 2 -d 3 -p tcp -e 1000 -c 2 -i 19 -a 2 -x {1.0 5.0 4 ------- null}
h -t 7.60702696 -s 2 -d 3 -p tcp -e 1000 -c 2 -i 19 -a 2 -x {1.0 5.0 -1 ------- null}
r -t 7.65703496 -s 2 -d 3 -p tcp -e 1000 -c 2 -i 19 -a 2 -x {1.0 5.0 4 ------- null}
+ -t 7.65703496 -s 3 -d 5 -p tcp -e 1000 -c 2 -i 19 -a 2 -x {1.0 5.0 4 ------- null}
- -t 7.65703496 -s 3 -d 5 -p tcp -e 1000 -c 2 -i 19 -a 2 -x {1.0 5.0 4 ------- null}
h -t 7.65703496 -s 3 -d 5 -p tcp -e 1000 -c 2 -i 19 -a 2 -x {1.0 5.0 -1 ------- null}
r -t 7.98004944 -s 3 -d 4 -p tcp -e 1000 -c 1 -i 20 -a 1 -x {0.0 4.0 5 ------- null}
+ -t 7.98004944 -s 4 -d 3 -p ack -e 40 -c 1 -i 23 -a 1 -x {4.0 0.0 5 ------- null}
- -t 7.98004944 -s 4 -d 3 -p ack -e 40 -c 1 -i 23 -a 1 -x {4.0 0.0 5 ------- null}
h -t 7.98004944 -s 4 -d 3 -p ack -e 40 -c 1 -i 23 -a 1 -x {4.0 0.0 -1 ------- null}
r -t 7.98005744 -s 3 -d 4 -p tcp -e 1000 -c 1 -i 21 -a 1 -x {0.0 4.0 6 ------- null}
+ -t 7.98005744 -s 4 -d 3 -p ack -e 40 -c 1 -i 24 -a 1 -x {4.0 0.0 6 ------- null}
- -t 7.98005744 -s 4 -d 3 -p ack -e 40 -c 1 -i 24 -a 1 -x {4.0 0.0 6 ------- null}
h -t 7.98005744 -s 4 -d 3 -p ack -e 40 -c 1 -i 24 -a 1 -x {4.0 0.0 -1 ------- null}
r -t 7.98006544 -s 3 -d 4 -p tcp -e 1000 -c 1 -i 22 -a 1 -x {0.0 4.0 7 ------- null}
+ -t 7.98006544 -s 4 -d 3 -p ack -e 40 -c 1 -i 25 -a 1 -x {4.0 0.0 7 ------- null}
- -t 7.98006544 -s 4 -d 3 -p ack -e 40 -c 1 -i 25 -a 1 -x {4.0 0.0 7 ------- null}
h -t 7.98006544 -s 4 -d 3 -p ack -e 40 -c 1 -i 25 -a 1 -x {4.0 0.0 -1 ------- null}
r -t 8.08803248 -s 3 -d 5 -p tcp -e 1000 -c 2 -i 18 -a 2 -x {1.0 5.0 3 ------- null}
+ -t 8.08803248 -s 5 -d 3 -p ack -e 40 -c 2 -i 26 -a 2 -x {5.0 1.0 3 ------- null}
- -t 8.08803248 -s 5 -d 3 -p ack -e 40 -c 2 -i 26 -a 2 -x {5.0 1.0 3 ------- null}
h -t 8.08803248 -s 5 -d 3 -p ack -e 40 -c 2 -i 26 -a 2 -x {5.0 1.0 -1 ------- null}
r -t 8.48003696 -s 3 -d 5 -p tcp -e 1000 -c 2 -i 19 -a 2 -x {1.0 5.0 4 ------- null}
+ -t 8.48003696 -s 5 -d 3 -p ack -e 40 -c 2 -i 27 -a 2 -x {5.0 1.0 4 ------- null}
- -t 8.48003696 -s 5 -d 3 -p ack -e 40 -c 2 -i 27 -a 2 -x {5.0 1.0 4 ------- null}
h -t 8.48003696 -s 5 -d 3 -p ack -e 40 -c 2 -i 27 -a 2 -x {5.0 1.0 -1 ------- null}
r -t 8.52504952 -s 4 -d 3 -p ack -e 40 -c 1 -i 23 -a 1 -x {4.0 0.0 5 ------- null}
+ -t 8.52504952 -s 3 -d 2 -p ack -e 40 -c 1 -i 23 -a 1 -x {4.0 0.0 5 ------- null}
- -t 8.52504952 -s 3 -d 2 -p ack -e 40 -c 1 -i 23 -a 1 -x {4.0 0.0 5 ------- null}
h -t 8.52504952 -s 3 -d 2 -p ack -e 40 -c 1 -i 23 -a 1 -x {4.0 0.0 -1 ------- null}
r -t 8.52505752 -s 4 -d 3 -p ack -e 40 -c 1 -i 24 -a 1 -x {4.0 0.0 6 ------- null}
+ -t 8.52505752 -s 3 -d 2 -p ack -e 40 -c 1 -i 24 -a 1 -x {4.0 0.0 6 ------- null}
- -t 8.52505752 -s 3 -d 2 -p ack -e 40 -c 1 -i 24 -a 1 -x {4.0 0.0 6 ------- null}
h -t 8.52505752 -s 3 -d 2 -p ack -e 40 -c 1 -i 24 -a 1 -x {4.0 0.0 -1 ------- null}
r -t 8.52506552 -s 4 -d 3 -p ack -e 40 -c 1 -i 25 -a 1 -x {4.0 0.0 7 ------- null}
+ -t 8.52506552 -s 3 -d 2 -p ack -e 40 -c 1 -i 25 -a 1 -x {4.0 0.0 7 ------- null}
- -t 8.52506552 -s 3 -d 2 -p ack -e 40 -c 1 -i 25 -a 1 -x {4.0 0.0 7 ------- null}
h -t 8.52506552 -s 3 -d 2 -p ack -e 40 -c 1 -i 25 -a 1 -x {4.0 0.0 -1 ------- null}
r -t 8.57504984 -s 3 -d 2 -p ack -e 40 -c 1 -i 23 -a 1 -x {4.0 0.0 5 ------- null}
+ -t 8.57504984 -s 2 -d 0 -p ack -e 40 -c 1 -i 23 -a 1 -x {4.0 0.0 5 ------- null}
- -t 8.57504984 -s 2 -d 0 -p ack -e 40 -c 1 -i 23 -a 1 -x {4.0 0.0 5 ------- null}
h -t 8.57504984 -s 2 -d 0 -p ack -e 40 -c 1 -i 23 -a 1 -x {4.0 0.0 -1 ------- null}
r -t 8.57505784 -s 3 -d 2 -p ack -e 40 -c 1 -i 24 -a 1 -x {4.0 0.0 6 ------- null}
+ -t 8.57505784 -s 2 -d 0 -p ack -e 40 -c 1 -i 24 -a 1 -x {4.0 0.0 6 ------- null}
- -t 8.57505784 -s 2 -d 0 -p ack -e 40 -c 1 -i 24 -a 1 -x {4.0 0.0 6 ------- null}
h -t 8.57505784 -s 2 -d 0 -p ack -e 40 -c 1 -i 24 -a 1 -x {4.0 0.0 -1 ------- null}
r -t 8.57506584 -s 3 -d 2 -p ack -e 40 -c 1 -i 25 -a 1 -x {4.0 0.0 7 ------- null}
+ -t 8.57506584 -s 2 -d 0 -p ack -e 40 -c 1 -i 25 -a 1 -x {4.0 0.0 7 ------- null}
- -t 8.57506584 -s 2 -d 0 -p ack -e 40 -c 1 -i 25 -a 1 -x {4.0 0.0 7 ------- null}
h -t 8.57506584 -s 2 -d 0 -p ack -e 40 -c 1 -i 25 -a 1 -x {4.0 0.0 -1 ------- null}
r -t 8.91103256 -s 5 -d 3 -p ack -e 40 -c 2 -i 26 -a 2 -x {5.0 1.0 3 ------- null}
+ -t 8.91103256 -s 3 -d 2 -p ack -e 40 -c 2 -i 26 -a 2 -x {5.0 1.0 3 ------- null}
- -t 8.91103256 -s 3 -d 2 -p ack -e 40 -c 2 -i 26 -a 2 -x {5.0 1.0 3 ------- null}
h -t 8.91103256 -s 3 -d 2 -p ack -e 40 -c 2 -i 26 -a 2 -x {5.0 1.0 -1 ------- null}
r -t 8.96103288 -s 3 -d 2 -p ack -e 40 -c 2 -i 26 -a 2 -x {5.0 1.0 3 ------- null}
+ -t 8.96103288 -s 2 -d 1 -p ack -e 40 -c 2 -i 26 -a 2 -x {5.0 1.0 3 ------- null}
- -t 8.96103288 -s 2 -d 1 -p ack -e 40 -c 2 -i 26 -a 2 -x {5.0 1.0 3 ------- null}
h -t 8.96103288 -s 2 -d 1 -p ack -e 40 -c 2 -i 26 -a 2 -x {5.0 1.0 -1 ------- null}
r -t 9.12004992 -s 2 -d 0 -p ack -e 40 -c 1 -i 23 -a 1 -x {4.0 0.0 5 ------- null}
+ -t 9.12004992 -s 0 -d 2 -p tcp -e 1000 -c 1 -i 28 -a 1 -x {0.0 4.0 8 ------- null}
- -t 9.12004992 -s 0 -d 2 -p tcp -e 1000 -c 1 -i 28 -a 1 -x {0.0 4.0 8 ------- null}
h -t 9.12004992 -s 0 -d 2 -p tcp -e 1000 -c 1 -i 28 -a 1 -x {0.0 4.0 -1 ------- null}
+ -t 9.12004992 -s 0 -d 2 -p tcp -e 1000 -c 1 -i 29 -a 1 -x {0.0 4.0 9 ------- null}
- -t 9.12005192 -s 0 -d 2 -p tcp -e 1000 -c 1 -i 29 -a 1 -x {0.0 4.0 9 ------- null}
h -t 9.12005192 -s 0 -d 2 -p tcp -e 1000 -c 1 -i 29 -a 1 -x {0.0 4.0 -1 ------- null}
r -t 9.12005792 -s 2 -d 0 -p ack -e 40 -c 1 -i 24 -a 1 -x {4.0 0.0 6 ------- null}
+ -t 9.12005792 -s 0 -d 2 -p tcp -e 1000 -c 1 -i 30 -a 1 -x {0.0 4.0 10 ------- null}
- -t 9.12005792 -s 0 -d 2 -p tcp -e 1000 -c 1 -i 30 -a 1 -x {0.0 4.0 10 ------- null}
h -t 9.12005792 -s 0 -d 2 -p tcp -e 1000 -c 1 -i 30 -a 1 -x {0.0 4.0 -1 ------- null}
+ -t 9.12005792 -s 0 -d 2 -p tcp -e 1000 -c 1 -i 31 -a 1 -x {0.0 4.0 11 ------- null}
- -t 9.12005992 -s 0 -d 2 -p tcp -e 1000 -c 1 -i 31 -a 1 -x {0.0 4.0 11 ------- null}
h -t 9.12005992 -s 0 -d 2 -p tcp -e 1000 -c 1 -i 31 -a 1 -x {0.0 4.0 -1 ------- null}
r -t 9.12006592 -s 2 -d 0 -p ack -e 40 -c 1 -i 25 -a 1 -x {4.0 0.0 7 ------- null}
+ -t 9.12006592 -s 0 -d 2 -p tcp -e 1000 -c 1 -i 32 -a 1 -x {0.0 4.0 12 ------- null}
- -t 9.12006592 -s 0 -d 2 -p tcp -e 1000 -c 1 -i 32 -a 1 -x {0.0 4.0 12 ------- null}
h -t 9.12006592 -s 0 -d 2 -p tcp -e 1000 -c 1 -i 32 -a 1 -x {0.0 4.0 -1 ------- null}
+ -t 9.12006592 -s 0 -d 2 -p tcp -e 1000 -c 1 -i 33 -a 1 -x {0.0 4.0 13 ------- null}
- -t 9.12006792 -s 0 -d 2 -p tcp -e 1000 -c 1 -i 33 -a 1 -x {0.0 4.0 13 ------- null}
h -t 9.12006792 -s 0 -d 2 -p tcp -e 1000 -c 1 -i 33 -a 1 -x {0.0 4.0 -1 ------- null}
r -t 9.30303704 -s 5 -d 3 -p ack -e 40 -c 2 -i 27 -a 2 -x {5.0 1.0 4 ------- null}
+ -t 9.30303704 -s 3 -d 2 -p ack -e 40 -c 2 -i 27 -a 2 -x {5.0 1.0 4 ------- null}
- -t 9.30303704 -s 3 -d 2 -p ack -e 40 -c 2 -i 27 -a 2 -x {5.0 1.0 4 ------- null}
h -t 9.30303704 -s 3 -d 2 -p ack -e 40 -c 2 -i 27 -a 2 -x {5.0 1.0 -1 ------- null}
r -t 9.35303736 -s 3 -d 2 -p ack -e 40 -c 2 -i 27 -a 2 -x {5.0 1.0 4 ------- null}