0.00000  0  0  4  0  cwnd_ 2.000 
0.00000  0  0  4  0  ssthresh_ 20
0.00000  0  0  4  0  ack_ -1
0.00000  0  0  4  0  maxseq_ -1
0.00000  0  0  4  0  rtt_ 0.000 
0.00000  1  0  5  0  cwnd_ 2.000 
0.00000  1  0  5  0  ssthresh_ 20
0.00000  1  0  5  0  ack_ -1
0.00000  1  0  5  0  maxseq_ -1
0.00000  1  0  5  0  rtt_ 0.000 
0.00000  0  0  4  0  ssthresh_ 1000
0.00000  1  0  5  0  ssthresh_ 1000
+ 0 1 2 tcp 40 ------- 2 1.0 5.0 0 0
- 0 1 2 tcp 40 ------- 2 1.0 5.0 0 0
0.00000  1  0  5  0  maxseq_ 0
+ 0 1 2 tcp 1040 ------- 2 1.0 5.0 1 1
0.00000  1  0  5  0  maxseq_ 1
+ 0 0 2 tcp 40 ------- 1 0.0 4.0 0 2
- 0 0 2 tcp 40 ------- 1 0.0 4.0 0 2
0.00000  0  0  4  0  maxseq_ 0
+ 0 0 2 tcp 1040 ------- 1 0.0 4.0 1 3
0.00000  0  0  4  0  maxseq_ 1
- 0 1 2 tcp 1040 ------- 2 1.0 5.0 1 1
- 0 0 2 tcp 1040 ------- 1 0.0 4.0 1 3
r 0.545 0 2 tcp 40 ------- 1 0.0 4.0 0 2
+ 0.545 2 3 tcp 40 ------- 1 0.0 4.0 0 2
- 0.545 2 3 tcp 40 ------- 1 0.0 4.0 0 2
r 0.545002 0 2 tcp 1040 ------- 1 0.0 4.0 1 3
+ 0.545002 2 3 tcp 1040 ------- 1 0.0 4.0 1 3
- 0.545002 2 3 tcp 1040 ------- 1 0.0 4.0 1 3
r 0.595 2 3 tcp 40 ------- 1 0.0 4.0 0 2
+ 0.595 3 4 tcp 40 ------- 1 0.0 4.0 0 2
- 0.595 3 4 tcp 40 ------- 1 0.0 4.0 0 2
r 0.59501 2 3 tcp 1040 ------- 1 0.0 4.0 1 3
+ 0.59501 3 4 tcp 1040 ------- 1 0.0 4.0 1 3
- 0.59501 3 4 tcp 1040 ------- 1 0.0 4.0 1 3
r 0.823 1 2 tcp 40 ------- 2 1.0 5.0 0 0
+ 0.823 2 3 tcp 40 ------- 2 1.0 5.0 0 0
- 0.823 2 3 tcp 40 ------- 2 1.0 5.0 0 0
r 0.823002 1 2 tcp 1040 ------- 2 1.0 5.0 1 1
+ 0.823002 2 3 tcp 1040 ------- 2 1.0 5.0 1 1
- 0.823002 2 3 tcp 1040 ------- 2 1.0 5.0 1 1
r 0.873 2 3 tcp 40 ------- 2 1.0 5.0 0 0
+ 0.873 3 5 tcp 40 ------- 2 1.0 5.0 0 0
- 0.873 3 5 tcp 40 ------- 2 1.0 5.0 0 0
r 0.87301 2 3 tcp 1040 ------- 2 1.0 5.0 1 1
+ 0.87301 3 5 tcp 1040 ------- 2 1.0 5.0 1 1
- 0.87301 3 5 tcp 1040 ------- 2 1.0 5.0 1 1
r 1.14 3 4 tcp 40 ------- 1 0.0 4.0 0 2
+ 1.14 4 3 ack 40 ------- 1 4.0 0.0 0 4
- 1.14 4 3 ack 40 ------- 1 4.0 0.0 0 4
r 1.140013 3 4 tcp 1040 ------- 1 0.0 4.0 1 3
+ 1.140013 4 3 ack 40 ------- 1 4.0 0.0 1 5
- 1.140013 4 3 ack 40 ------- 1 4.0 0.0 1 5
r 1.685001 4 3 ack 40 ------- 1 4.0 0.0 0 4
+ 1.685001 3 2 ack 40 ------- 1 4.0 0.0 0 4
- 1.685001 3 2 ack 40 ------- 1 4.0 0.0 0 4
r 1.685013 4 3 ack 40 ------- 1 4.0 0.0 1 5
+ 1.685013 3 2 ack 40 ------- 1 4.0 0.0 1 5
- 1.685013 3 2 ack 40 ------- 1 4.0 0.0 1 5
r 1.696 3 5 tcp 40 ------- 2 1.0 5.0 0 0
+ 1.696 5 3 ack 40 ------- 2 5.0 1.0 0 6
- 1.696 5 3 ack 40 ------- 2 5.0 1.0 0 6
r 1.696013 3 5 tcp 1040 ------- 2 1.0 5.0 1 1
+ 1.696013 5 3 ack 40 ------- 2 5.0 1.0 1 7
- 1.696013 5 3 ack 40 ------- 2 5.0 1.0 1 7
r 1.735001 3 2 ack 40 ------- 1 4.0 0.0 0 4
+ 1.735001 2 0 ack 40 ------- 1 4.0 0.0 0 4
- 1.735001 2 0 ack 40 ------- 1 4.0 0.0 0 4
r 1.735013 3 2 ack 40 ------- 1 4.0 0.0 1 5
+ 1.735013 2 0 ack 40 ------- 1 4.0 0.0 1 5
- 1.735013 2 0 ack 40 ------- 1 4.0 0.0 1 5
r 2.280001 2 0 ack 40 ------- 1 4.0 0.0 0 4
2.28000  0  0  4  0  ack_ 0
2.28000  0  0  4  0  rtt_ 2.280 
2.28000  0  0  4  0  cwnd_ 3.000 
+ 2.280001 0 2 tcp 1040 ------- 1 0.0 4.0 2 8
- 2.280001 0 2 tcp 1040 ------- 1 0.0 4.0 2 8
2.28000  0  0  4  0  maxseq_ 2
+ 2.280001 0 2 tcp 1040 ------- 1 0.0 4.0 3 9
2.28000  0  0  4  0  maxseq_ 3
- 2.280003 0 2 tcp 1040 ------- 1 0.0 4.0 3 9
r 2.280013 2 0 ack 40 ------- 1 4.0 0.0 1 5
2.28001  0  0  4  0  ack_ 1
2.28001  0  0  4  0  cwnd_ 4.000 
+ 2.280013 0 2 tcp 1040 ------- 1 0.0 4.0 4 10
- 2.280013 0 2 tcp 1040 ------- 1 0.0 4.0 4 10
2.28001  0  0  4  0  maxseq_ 4
+ 2.280013 0 2 tcp 1040 ------- 1 0.0 4.0 5 11
2.28001  0  0  4  0  maxseq_ 5
- 2.280015 0 2 tcp 1040 ------- 1 0.0 4.0 5 11
r 2.519001 5 3 ack 40 ------- 2 5.0 1.0 0 6
+ 2.519001 3 2 ack 40 ------- 2 5.0 1.0 0 6
- 2.519001 3 2 ack 40 ------- 2 5.0 1.0 0 6
r 2.519013 5 3 ack 40 ------- 2 5.0 1.0 1 7
+ 2.519013 3 2 ack 40 ------- 2 5.0 1.0 1 7
- 2.519013 3 2 ack 40 ------- 2 5.0 1.0 1 7
r 2.569001 3 2 ack 40 ------- 2 5.0 1.0 0 6
+ 2.569001 2 1 ack 40 ------- 2 5.0 1.0 0 6
- 2.569001 2 1 ack 40 ------- 2 5.0 1.0 0 6
r 2.569013 3 2 ack 40 ------- 2 5.0 1.0 1 7
+ 2.569013 2 1 ack 40 ------- 2 5.0 1.0 1 7
- 2.569013 2 1 ack 40 ------- 2 5.0 1.0 1 7
r 2.825003 0 2 tcp 1040 ------- 1 0.0 4.0 2 8
+ 2.825003 2 3 tcp 1040 ------- 1 0.0 4.0 2 8
- 2.825003 2 3 tcp 1040 ------- 1 0.0 4.0 2 8
r 2.825005 0 2 tcp 1040 ------- 1 0.0 4.0 3 9
+ 2.825005 2 3 tcp 1040 ------- 1 0.0 4.0 3 9
- 2.825011 2 3 tcp 1040 ------- 1 0.0 4.0 3 9
r 2.825015 0 2 tcp 1040 ------- 1 0.0 4.0 4 10
+ 2.825015 2 3 tcp 1040 ------- 1 0.0 4.0 4 10
r 2.825017 0 2 tcp 1040 ------- 1 0.0 4.0 5 11
+ 2.825017 2 3 tcp 1040 ------- 1 0.0 4.0 5 11
- 2.82502 2 3 tcp 1040 ------- 1 0.0 4.0 4 10
- 2.825028 2 3 tcp 1040 ------- 1 0.0 4.0 5 11
r 2.875011 2 3 tcp 1040 ------- 1 0.0 4.0 2 8
+ 2.875011 3 4 tcp 1040 ------- 1 0.0 4.0 2 8
- 2.875011 3 4 tcp 1040 ------- 1 0.0 4.0 2 8
r 2.87502 2 3 tcp 1040 ------- 1 0.0 4.0 3 9
+ 2.87502 3 4 tcp 1040 ------- 1 0.0 4.0 3 9
- 2.87502 3 4 tcp 1040 ------- 1 0.0 4.0 3 9
r 2.875028 2 3 tcp 1040 ------- 1 0.0 4.0 4 10
+ 2.875028 3 4 tcp 1040 ------- 1 0.0 4.0 4 10
- 2.875028 3 4 tcp 1040 ------- 1 0.0 4.0 4 10
r 2.875036 2 3 tcp 1040 ------- 1 0.0 4.0 5 11
+ 2.875036 3 4 tcp 1040 ------- 1 0.0 4.0 5 11
- 2.875036 3 4 tcp 1040 ------- 1 0.0 4.0 5 11
3.00000  1  0  5  0  cwnd_ 1.000 
3.00000  1  0  5  0  ssthresh_ 2
+ 3 1 2 tcp 40 ---A--- 2 1.0 5.0 0 12
- 3 1 2 tcp 40 ---A--- 2 1.0 5.0 0 12
r 3.392001 2 1 ack 40 ------- 2 5.0 1.0 0 6
3.39200  1  0  5  0  ack_ 0
3.39200  1  0  5  0  cwnd_ 2.000 
+ 3.392001 1 2 tcp 1040 ------- 2 1.0 5.0 1 13
- 3.392001 1 2 tcp 1040 ------- 2 1.0 5.0 1 13
+ 3.392001 1 2 tcp 1040 ------- 2 1.0 5.0 2 14
3.39200  1  0  5  0  maxseq_ 2
- 3.392003 1 2 tcp 1040 ------- 2 1.0 5.0 2 14
r 3.392013 2 1 ack 40 ------- 2 5.0 1.0 1 7
3.39201  1  0  5  0  ack_ 1
3.39201  1  0  5  0  cwnd_ 3.000 
+ 3.392013 1 2 tcp 1040 ------- 2 1.0 5.0 3 15
- 3.392013 1 2 tcp 1040 ------- 2 1.0 5.0 3 15
3.39201  1  0  5  0  maxseq_ 3
+ 3.392013 1 2 tcp 1040 ------- 2 1.0 5.0 4 16
3.39201  1  0  5  0  maxseq_ 4
- 3.392015 1 2 tcp 1040 ------- 2 1.0 5.0 4 16
r 3.420013 3 4 tcp 1040 ------- 1 0.0 4.0 2 8
+ 3.420013 4 3 ack 40 ------- 1 4.0 0.0 2 17
- 3.420013 4 3 ack 40 ------- 1 4.0 0.0 2 17
r 3.420022 3 4 tcp 1040 ------- 1 0.0 4.0 3 9
+ 3.420022 4 3 ack 40 ------- 1 4.0 0.0 3 18
- 3.420022 4 3 ack 40 ------- 1 4.0 0.0 3 18
r 3.42003 3 4 tcp 1040 ------- 1 0.0 4.0 4 10
+ 3.42003 4 3 ack 40 ------- 1 4.0 0.0 4 19
- 3.42003 4 3 ack 40 ------- 1 4.0 0.0 4 19
r 3.420038 3 4 tcp 1040 ------- 1 0.0 4.0 5 11
+ 3.420038 4 3 ack 40 ------- 1 4.0 0.0 5 20
- 3.420038 4 3 ack 40 ------- 1 4.0 0.0 5 20
r 3.823 1 2 tcp 40 ---A--- 2 1.0 5.0 0 12
+ 3.823 2 3 tcp 40 ---A--- 2 1.0 5.0 0 12
- 3.823 2 3 tcp 40 ---A--- 2 1.0 5.0 0 12
r 3.873 2 3 tcp 40 ---A--- 2 1.0 5.0 0 12
+ 3.873 3 5 tcp 40 ---A--- 2 1.0 5.0 0 12
- 3.873 3 5 tcp 40 ---A--- 2 1.0 5.0 0 12
r 3.965014 4 3 ack 40 ------- 1 4.0 0.0 2 17
+ 3.965014 3 2 ack 40 ------- 1 4.0 0.0 2 17
- 3.965014 3 2 ack 40 ------- 1 4.0 0.0 2 17
r 3.965022 4 3 ack 40 ------- 1 4.0 0.0 3 18
+ 3.965022 3 2 ack 40 ------- 1 4.0 0.0 3 18
- 3.965022 3 2 ack 40 ------- 1 4.0 0.0 3 18
r 3.96503 4 3 ack 40 ------- 1 4.0 0.0 4 19
+ 3.96503 3 2 ack 40 ------- 1 4.0 0.0 4 19
- 3.96503 3 2 ack 40 ------- 1 4.0 0.0 4 19
r 3.965038 4 3 ack 40 ------- 1 4.0 0.0 5 20
+ 3.965038 3 2 ack 40 ------- 1 4.0 0.0 5 20
- 3.965038 3 2 ack 40 ------- 1 4.0 0.0 5 20
r 4.015014 3 2 ack 40 ------- 1 4.0 0.0 2 17
+ 4.015014 2 0 ack 40 ------- 1 4.0 0.0 2 17
- 4.015014 2 0 ack 40 ------- 1 4.0 0.0 2 17
r 4.015022 3 2 ack 40 ------- 1 4.0 0.0 3 18
+ 4.015022 2 0 ack 40 ------- 1 4.0 0.0 3 18
- 4.015022 2 0 ack 40 ------- 1 4.0 0.0 3 18
r 4.01503 3 2 ack 40 ------- 1 4.0 0.0 4 19
+ 4.01503 2 0 ack 40 ------- 1 4.0 0.0 4 19
- 4.01503 2 0 ack 40 ------- 1 4.0 0.0 4 19
r 4.015039 3 2 ack 40 ------- 1 4.0 0.0 5 20
+ 4.015039 2 0 ack 40 ------- 1 4.0 0.0 5 20
- 4.015039 2 0 ack 40 ------- 1 4.0 0.0 5 20
r 4.215003 1 2 tcp 1040 ------- 2 1.0 5.0 1 13
+ 4.215003 2 3 tcp 1040 ------- 2 1.0 5.0 1 13
- 4.215003 2 3 tcp 1040 ------- 2 1.0 5.0 1 13
r 4.215005 1 2 tcp 1040 ------- 2 1.0 5.0 2 14
+ 4.215005 2 3 tcp 1040 ------- 2 1.0 5.0 2 14
- 4.215011 2 3 tcp 1040 ------- 2 1.0 5.0 2 14
r 4.215015 1 2 tcp 1040 ------- 2 1.0 5.0 3 15
+ 4.215015 2 3 tcp 1040 ------- 2 1.0 5.0 3 15
r 4.215017 1 2 tcp 1040 ------- 2 1.0 5.0 4 16
+ 4.215017 2 3 tcp 1040 ------- 2 1.0 5.0 4 16
- 4.21502 2 3 tcp 1040 ------- 2 1.0 5.0 3 15
- 4.215028 2 3 tcp 1040 ------- 2 1.0 5.0 4 16
r 4.265011 2 3 tcp 1040 ------- 2 1.0 5.0 1 13
+ 4.265011 3 5 tcp 1040 ------- 2 1.0 5.0 1 13
- 4.265011 3 5 tcp 1040 ------- 2 1.0 5.0 1 13
r 4.26502 2 3 tcp 1040 ------- 2 1.0 5.0 2 14
+ 4.26502 3 5 tcp 1040 ------- 2 1.0 5.0 2 14
- 4.26502 3 5 tcp 1040 ------- 2 1.0 5.0 2 14
r 4.265028 2 3 tcp 1040 ------- 2 1.0 5.0 3 15
+ 4.265028 3 5 tcp 1040 ------- 2 1.0 5.0 3 15
- 4.265028 3 5 tcp 1040 ------- 2 1.0 5.0 3 15
r 4.265036 2 3 tcp 1040 ------- 2 1.0 5.0 4 16
+ 4.265036 3 5 tcp 1040 ------- 2 1.0 5.0 4 16
- 4.265036 3 5 tcp 1040 ------- 2 1.0 5.0 4 16
r 4.560014 2 0 ack 40 ------- 1 4.0 0.0 2 17
4.56001  0  0  4  0  ack_ 2
4.56001  0  0  4  0  cwnd_ 5.000 
+ 4.560014 0 2 tcp 1040 ------- 1 0.0 4.0 6 21
- 4.560014 0 2 tcp 1040 ------- 1 0.0 4.0 6 21
4.56001  0  0  4  0  maxseq_ 6
+ 4.560014 0 2 tcp 1040 ------- 1 0.0 4.0 7 22
4.56001  0  0  4  0  maxseq_ 7
- 4.560016 0 2 tcp 1040 ------- 1 0.0 4.0 7 22
r 4.560022 2 0 ack 40 ------- 1 4.0 0.0 3 18
4.56002  0  0  4  0  ack_ 3
4.56002  0  0  4  0  cwnd_ 6.000 
+ 4.560022 0 2 tcp 1040 ------- 1 0.0 4.0 8 23
- 4.560022 0 2 tcp 1040 ------- 1 0.0 4.0 8 23
4.56002  0  0  4  0  maxseq_ 8
+ 4.560022 0 2 tcp 1040 ------- 1 0.0 4.0 9 24
4.56002  0  0  4  0  maxseq_ 9
- 4.560024 0 2 tcp 1040 ------- 1 0.0 4.0 9 24
r 4.560031 2 0 ack 40 ------- 1 4.0 0.0 4 19
4.56003  0  0  4  0  ack_ 4
4.56003  0  0  4  0  cwnd_ 7.000 
+ 4.560031 0 2 tcp 1040 ------- 1 0.0 4.0 10 25
- 4.560031 0 2 tcp 1040 ------- 1 0.0 4.0 10 25
4.56003  0  0  4  0  maxseq_ 10
+ 4.560031 0 2 tcp 1040 ------- 1 0.0 4.0 11 26
4.56003  0  0  4  0  maxseq_ 11
- 4.560033 0 2 tcp 1040 ------- 1 0.0 4.0 11 26
r 4.560039 2 0 ack 40 ------- 1 4.0 0.0 5 20
4.56004  0  0  4  0  ack_ 5
4.56004  0  0  4  0  cwnd_ 8.000 
+ 4.560039 0 2 tcp 1040 ------- 1 0.0 4.0 12 27
- 4.560039 0 2 tcp 1040 ------- 1 0.0 4.0 12 27
4.56004  0  0  4  0  maxseq_ 12
+ 4.560039 0 2 tcp 1040 ------- 1 0.0 4.0 13 28
4.56004  0  0  4  0  maxseq_ 13
- 4.560041 0 2 tcp 1040 ------- 1 0.0 4.0 13 28
r 4.696 3 5 tcp 40 ---A--- 2 1.0 5.0 0 12
+ 4.696 5 3 ack 40 ------- 2 5.0 1.0 1 29
- 4.696 5 3 ack 40 ------- 2 5.0 1.0 1 29
r 5.088013 3 5 tcp 1040 ------- 2 1.0 5.0 1 13
+ 5.088013 5 3 ack 40 ------- 2 5.0 1.0 1 30
- 5.088013 5 3 ack 40 ------- 2 5.0 1.0 1 30
r 5.088022 3 5 tcp 1040 ------- 2 1.0 5.0 2 14
+ 5.088022 5 3 ack 40 ------- 2 5.0 1.0 2 31
- 5.088022 5 3 ack 40 ------- 2 5.0 1.0 2 31
r 5.08803 3 5 tcp 1040 ------- 2 1.0 5.0 3 15
+ 5.08803 5 3 ack 40 ------- 2 5.0 1.0 3 32
- 5.08803 5 3 ack 40 ------- 2 5.0 1.0 3 32
r 5.088038 3 5 tcp 1040 ------- 2 1.0 5.0 4 16
+ 5.088038 5 3 ack 40 ------- 2 5.0 1.0 4 33
- 5.088038 5 3 ack 40 ------- 2 5.0 1.0 4 33
r 5.105016 0 2 tcp 1040 ------- 1 0.0 4.0 6 21
+ 5.105016 2 3 tcp 1040 ------- 1 0.0 4.0 6 21
- 5.105016 2 3 tcp 1040 ------- 1 0.0 4.0 6 21
r 5.105018 0 2 tcp 1040 ------- 1 0.0 4.0 7 22
+ 5.105018 2 3 tcp 1040 ------- 1 0.0 4.0 7 22
r 5.105024 0 2 tcp 1040 ------- 1 0.0 4.0 8 23
+ 5.105024 2 3 tcp 1040 ------- 1 0.0 4.0 8 23
- 5.105024 2 3 tcp 1040 ------- 1 0.0 4.0 7 22
r 5.105026 0 2 tcp 1040 ------- 1 0.0 4.0 9 24
+ 5.105026 2 3 tcp 1040 ------- 1 0.0 4.0 9 24
r 5.105033 0 2 tcp 1040 ------- 1 0.0 4.0 10 25
+ 5.105033 2 3 tcp 1040 ------- 1 0.0 4.0 10 25
- 5.105033 2 3 tcp 1040 ------- 1 0.0 4.0 8 23
r 5.105035 0 2 tcp 1040 ------- 1 0.0 4.0 11 26
+ 5.105035 2 3 tcp 1040 ------- 1 0.0 4.0 11 26
r 5.105041 0 2 tcp 1040 ------- 1 0.0 4.0 12 27
+ 5.105041 2 3 tcp 1040 ------- 1 0.0 4.0 12 27
- 5.105041 2 3 tcp 1040 ------- 1 0.0 4.0 9 24
r 5.105043 0 2 tcp 1040 ------- 1 0.0 4.0 13 28
+ 5.105043 2 3 tcp 1040 ------- 1 0.0 4.0 13 28
- 5.105049 2 3 tcp 1040 ------- 1 0.0 4.0 10 25
- 5.105058 2 3 tcp 1040 ------- 1 0.0 4.0 11 26
- 5.105066 2 3 tcp 1040 ------- 1 0.0 4.0 12 27
- 5.105074 2 3 tcp 1040 ------- 1 0.0 4.0 13 28
r 5.155024 2 3 tcp 1040 ------- 1 0.0 4.0 6 21
+ 5.155024 3 4 tcp 1040 ------- 1 0.0 4.0 6 21
- 5.155024 3 4 tcp 1040 ------- 1 0.0 4.0 6 21
r 5.155033 2 3 tcp 1040 ------- 1 0.0 4.0 7 22
+ 5.155033 3 4 tcp 1040 ------- 1 0.0 4.0 7 22
- 5.155033 3 4 tcp 1040 ------- 1 0.0 4.0 7 22
r 5.155041 2 3 tcp 1040 ------- 1 0.0 4.0 8 23
+ 5.155041 3 4 tcp 1040 ------- 1 0.0 4.0 8 23
- 5.155041 3 4 tcp 1040 ------- 1 0.0 4.0 8 23
r 5.155049 2 3 tcp 1040 ------- 1 0.0 4.0 9 24
+ 5.155049 3 4 tcp 1040 ------- 1 0.0 4.0 9 24
- 5.155049 3 4 tcp 1040 ------- 1 0.0 4.0 9 24
r 5.155058 2 3 tcp 1040 ------- 1 0.0 4.0 10 25
+ 5.155058 3 4 tcp 1040 ------- 1 0.0 4.0 10 25
- 5.155058 3 4 tcp 1040 ------- 1 0.0 4.0 10 25
r 5.155066 2 3 tcp 1040 ------- 1 0.0 4.0 11 26
+ 5.155066 3 4 tcp 1040 ------- 1 0.0 4.0 11 26
- 5.155066 3 4 tcp 1040 ------- 1 0.0 4.0 11 26
r 5.155074 2 3 tcp 1040 ------- 1 0.0 4.0 12 27
+ 5.155074 3 4 tcp 1040 ------- 1 0.0 4.0 12 27
- 5.155074 3 4 tcp 1040 ------- 1 0.0 4.0 12 27
r 5.155083 2 3 tcp 1040 ------- 1 0.0 4.0 13 28
+ 5.155083 3 4 tcp 1040 ------- 1 0.0 4.0 13 28
- 5.155083 3 4 tcp 1040 ------- 1 0.0 4.0 13 28
r 5.519001 5 3 ack 40 ------- 2 5.0 1.0 1 29
+ 5.519001 3 2 ack 40 ------- 2 5.0 1.0 1 29
- 5.519001 3 2 ack 40 ------- 2 5.0 1.0 1 29
r 5.569001 3 2 ack 40 ------- 2 5.0 1.0 1 29
+ 5.569001 2 1 ack 40 ------- 2 5.0 1.0 1 29
- 5.569001 2 1 ack 40 ------- 2 5.0 1.0 1 29
r 5.700026 3 4 tcp 1040 ------- 1 0.0 4.0 6 21
+ 5.700026 4 3 ack 40 ------- 1 4.0 0.0 6 34
- 5.700026 4 3 ack 40 ------- 1 4.0 0.0 6 34
r 5.700035 3 4 tcp 1040 ------- 1 0.0 4.0 7 22
+ 5.700035 4 3 ack 40 ------- 1 4.0 0.0 7 35
- 5.700035 4 3 ack 40 ------- 1 4.0 0.0 7 35
r 5.700043 3 4 tcp 1040 ------- 1 0.0 4.0 8 23
+ 5.700043 4 3 ack 40 ------- 1 4.0 0.0 8 36
- 5.700043 4 3 ack 40 ------- 1 4.0 0.0 8 36
r 5.700051 3 4 tcp 1040 ------- 1 0.0 4.0 9 24
+ 5.700051 4 3 ack 40 ------- 1 4.0 0.0 9 37
- 5.700051 4 3 ack 40 ------- 1 4.0 0.0 9 37
r 5.70006 3 4 tcp 1040 ------- 1 0.0 4.0 10 25
+ 5.70006 4 3 ack 40 ------- 1 4.0 0.0 10 38
- 5.70006 4 3 ack 40 ------- 1 4.0 0.0 10 38
r 5.700068 3 4 tcp 1040 ------- 1 0.0 4.0 11 26
+ 5.700068 4 3 ack 40 ------- 1 4.0 0.0 11 39
- 5.700068 4 3 ack 40 ------- 1 4.0 0.0 11 39
r 5.700076 3 4 tcp 1040 ------- 1 0.0 4.0 12 27
+ 5.700076 4 3 ack 40 ------- 1 4.0 0.0 12 40
- 5.700076 4 3 ack 40 ------- 1 4.0 0.0 12 40
r 5.700085 3 4 tcp 1040 ------- 1 0.0 4.0 13 28
+ 5.700085 4 3 ack 40 ------- 1 4.0 0.0 13 41
- 5.700085 4 3 ack 40 ------- 1 4.0 0.0 13 41
r 5.911014 5 3 ack 40 ------- 2 5.0 1.0 1 30
+ 5.911014 3 2 ack 40 ------- 2 5.0 1.0 1 30
- 5.911014 3 2 ack 40 ------- 2 5.0 1.0 1 30
r 5.911022 5 3 ack 40 ------- 2 5.0 1.0 2 31
+ 5.911022 3 2 ack 40 ------- 2 5.0 1.0 2 31
- 5.911022 3 2 ack 40 ------- 2 5.0 1.0 2 31
r 5.91103 5 3 ack 40 ------- 2 5.0 1.0 3 32
+ 5.91103 3 2 ack 40 ------- 2 5.0 1.0 3 32
- 5.91103 3 2 ack 40 ------- 2 5.0 1.0 3 32
r 5.911038 5 3 ack 40 ------- 2 5.0 1.0 4 33
+ 5.911038 3 2 ack 40 ------- 2 5.0 1.0 4 33
- 5.911038 3 2 ack 40 ------- 2 5.0 1.0 4 33
r 5.961014 3 2 ack 40 ------- 2 5.0 1.0 1 30
+ 5.961014 2 1 ack 40 ------- 2 5.0 1.0 1 30
- 5.961014 2 1 ack 40 ------- 2 5.0 1.0 1 30
r 5.961022 3 2 ack 40 ------- 2 5.0 1.0 2 31
+ 5.961022 2 1 ack 40 ------- 2 5.0 1.0 2 31
- 5.961022 2 1 ack 40 ------- 2 5.0 1.0 2 31
r 5.96103 3 2 ack 40 ------- 2 5.0 1.0 3 32
+ 5.96103 2 1 ack 40 ------- 2 5.0 1.0 3 32
- 5.96103 2 1 ack 40 ------- 2 5.0 1.0 3 32
r 5.961039 3 2 ack 40 ------- 2 5.0 1.0 4 33
+ 5.961039 2 1 ack 40 ------- 2 5.0 1.0 4 33
- 5.961039 2 1 ack 40 ------- 2 5.0 1.0 4 33
r 6.245026 4 3 ack 40 ------- 1 4.0 0.0 6 34
+ 6.245026 3 2 ack 40 ------- 1 4.0 0.0 6 34
- 6.245026 3 2 ack 40 ------- 1 4.0 0.0 6 34
r 6.245035 4 3 ack 40 ------- 1 4.0 0.0 7 35
+ 6.245035 3 2 ack 40 ------- 1 4.0 0.0 7 35
- 6.245035 3 2 ack 40 ------- 1 4.0 0.0 7 35
r 6.245043 4 3 ack 40 ------- 1 4.0 0.0 8 36
+ 6.245043 3 2 ack 40 ------- 1 4.0 0.0 8 36
- 6.245043 3 2 ack 40 ------- 1 4.0 0.0 8 36
r 6.245051 4 3 ack 40 ------- 1 4.0 0.0 9 37
+ 6.245051 3 2 ack 40 ------- 1 4.0 0.0 9 37
- 6.245051 3 2 ack 40 ------- 1 4.0 0.0 9 37
r 6.24506 4 3 ack 40 ------- 1 4.0 0.0 10 38
+ 6.24506 3 2 ack 40 ------- 1 4.0 0.0 10 38
- 6.24506 3 2 ack 40 ------- 1 4.0 0.0 10 38
r 6.245068 4 3 ack 40 ------- 1 4.0 0.0 11 39
+ 6.245068 3 2 ack 40 ------- 1 4.0 0.0 11 39
- 6.245068 3 2 ack 40 ------- 1 4.0 0.0 11 39
r 6.245076 4 3 ack 40 ------- 1 4.0 0.0 12 40
+ 6.245076 3 2 ack 40 ------- 1 4.0 0.0 12 40
- 6.245076 3 2 ack 40 ------- 1 4.0 0.0 12 40
r 6.245085 4 3 ack 40 ------- 1 4.0 0.0 13 41
+ 6.245085 3 2 ack 40 ------- 1 4.0 0.0 13 41
- 6.245085 3 2 ack 40 ------- 1 4.0 0.0 13 41
r 6.295027 3 2 ack 40 ------- 1 4.0 0.0 6 34
+ 6.295027 2 0 ack 40 ------- 1 4.0 0.0 6 34
- 6.295027 2 0 ack 40 ------- 1 4.0 0.0 6 34
r 6.295035 3 2 ack 40 ------- 1 4.0 0.0 7 35
+ 6.295035 2 0 ack 40 ------- 1 4.0 0.0 7 35
- 6.295035 2 0 ack 40 ------- 1 4.0 0.0 7 35
r 6.295043 3 2 ack 40 ------- 1 4.0 0.0 8 36
+ 6.295043 2 0 ack 40 ------- 1 4.0 0.0 8 36
- 6.295043 2 0 ack 40 ------- 1 4.0 0.0 8 36
r 6.295052 3 2 ack 40 ------- 1 4.0 0.0 9 37
+ 6.295052 2 0 ack 40 ------- 1 4.0 0.0 9 37
- 6.295052 2 0 ack 40 ------- 1 4.0 0.0 9 37
r 6.29506 3 2 ack 40 ------- 1 4.0 0.0 10 38
+ 6.29506 2 0 ack 40 ------- 1 4.0 0.0 10 38
- 6.29506 2 0 ack 40 ------- 1 4.0 0.0 10 38
r 6.295068 3 2 ack 40 ------- 1 4.0 0.0 11 39
+ 6.295068 2 0 ack 40 ------- 1 4.0 0.0 11 39
- 6.295068 2 0 ack 40 ------- 1 4.0 0.0 11 39
r 6.295077 3 2 ack 40 ------- 1 4.0 0.0 12 40
+ 6.295077 2 0 ack 40 ------- 1 4.0 0.0 12 40
- 6.295077 2 0 ack 40 ------- 1 4.0 0.0 12 40
r 6.295085 3 2 ack 40 ------- 1 4.0 0.0 13 41
+ 6.295085 2 0 ack 40 ------- 1 4.0 0.0 13 41
- 6.295085 2 0 ack 40 ------- 1 4.0 0.0 13 41
r 6.392001 2 1 ack 40 ------- 2 5.0 1.0 1 29
r 6.784014 2 1 ack 40 ------- 2 5.0 1.0 1 30
r 6.784022 2 1 ack 40 ------- 2 5.0 1.0 2 31
6.78402  1  0  5  0  ack_ 2
6.78402  1  0  5  0  rtt_ 3.392 
+ 6.784022 1 2 tcp 1040 ------- 2 1.0 5.0 5 42
- 6.784022 1 2 tcp 1040 ------- 2 1.0 5.0 5 42
6.78402  1  0  5  0  maxseq_ 5
r 6.784031 2 1 ack 40 ------- 2 5.0 1.0 3 32
6.78403  1  0  5  0  ack_ 3
+ 6.784031 1 2 tcp 1040 ------- 2 1.0 5.0 6 43
- 6.784031 1 2 tcp 1040 ------- 2 1.0 5.0 6 43
6.78403  1  0  5  0  maxseq_ 6
r 6.784039 2 1 ack 40 ------- 2 5.0 1.0 4 33
6.78404  1  0  5  0  ack_ 4
+ 6.784039 1 2 tcp 1040 ------- 2 1.0 5.0 7 44
- 6.784039 1 2 tcp 1040 ------- 2 1.0 5.0 7 44
6.78404  1  0  5  0  maxseq_ 7
r 6.840027 2 0 ack 40 ------- 1 4.0 0.0 6 34
6.84003  0  0  4  0  ack_ 6
6.84003  0  0  4  0  cwnd_ 9.000 
+ 6.840027 0 2 tcp 1040 ------- 1 0.0 4.0 14 45
- 6.840027 0 2 tcp 1040 ------- 1 0.0 4.0 14 45
6.84003  0  0  4  0  maxseq_ 14
+ 6.840027 0 2 tcp 1040 ------- 1 0.0 4.0 15 46
6.84003  0  0  4  0  maxseq_ 15
- 6.840029 0 2 tcp 1040 ------- 1 0.0 4.0 15 46
r 6.840035 2 0 ack 40 ------- 1 4.0 0.0 7 35
6.84004  0  0  4  0  ack_ 7
6.84004  0  0  4  0  cwnd_ 10.000
+ 6.840035 0 2 tcp 1040 ------- 1 0.0 4.0 16 47
- 6.840035 0 2 tcp 1040 ------- 1 0.0 4.0 16 47
6.84004  0  0  4  0  maxseq_ 16
+ 6.840035 0 2 tcp 1040 ------- 1 0.0 4.0 17 48
6.84004  0  0  4  0  maxseq_ 17
- 6.840037 0 2 tcp 1040 ------- 1 0.0 4.0 17 48
r 6.840044 2 0 ack 40 ------- 1 4.0 0.0 8 36
6.84004  0  0  4  0  ack_ 8
6.84004  0  0  4  0  cwnd_ 11.000
+ 6.840044 0 2 tcp 1040 ------- 1 0.0 4.0 18 49
- 6.840044 0 2 tcp 1040 ------- 1 0.0 4.0 18 49
6.84004  0  0  4  0  maxseq_ 18
+ 6.840044 0 2 tcp 1040 ------- 1 0.0 4.0 19 50
6.84004  0  0  4  0  maxseq_ 19
- 6.840046 0 2 tcp 1040 ------- 1 0.0 4.0 19 50
r 6.840052 2 0 ack 40 ------- 1 4.0 0.0 9 37
6.84005  0  0  4  0  ack_ 9
6.84005  0  0  4  0  cwnd_ 12.000
+ 6.840052 0 2 tcp 1040 ------- 1 0.0 4.0 20 51
- 6.840052 0 2 tcp 1040 ------- 1 0.0 4.0 20 51
6.84005  0  0  4  0  maxseq_ 20
+ 6.840052 0 2 tcp 1040 ------- 1 0.0 4.0 21 52
6.84005  0  0  4  0  maxseq_ 21
- 6.840054 0 2 tcp 1040 ------- 1 0.0 4.0 21 52
r 6.84006 2 0 ack 40 ------- 1 4.0 0.0 10 38
6.84006  0  0  4  0  ack_ 10
6.84006  0  0  4  0  cwnd_ 13.000
+ 6.84006 0 2 tcp 1040 ------- 1 0.0 4.0 22 53
- 6.84006 0 2 tcp 1040 ------- 1 0.0 4.0 22 53
6.84006  0  0  4  0  maxseq_ 22
+ 6.84006 0 2 tcp 1040 ------- 1 0.0 4.0 23 54
6.84006  0  0  4  0  maxseq_ 23
- 6.840062 0 2 tcp 1040 ------- 1 0.0 4.0 23 54
r 6.840068 2 0 ack 40 ------- 1 4.0 0.0 11 39
6.84007  0  0  4  0  ack_ 11
6.84007  0  0  4  0  cwnd_ 14.000
+ 6.840068 0 2 tcp 1040 ------- 1 0.0 4.0 24 55
- 6.840068 0 2 tcp 1040 ------- 1 0.0 4.0 24 55
6.84007  0  0  4  0  maxseq_ 24
+ 6.840068 0 2 tcp 1040 ------- 1 0.0 4.0 25 56
6.84007  0  0  4  0  maxseq_ 25
- 6.840071 0 2 tcp 1040 ------- 1 0.0 4.0 25 56
r 6.840077 2 0 ack 40 ------- 1 4.0 0.0 12 40
6.84008  0  0  4  0  ack_ 12
6.84008  0  0  4  0  cwnd_ 15.000
+ 6.840077 0 2 tcp 1040 ------- 1 0.0 4.0 26 57
- 6.840077 0 2 tcp 1040 ------- 1 0.0 4.0 26 57
6.84008  0  0  4  0  maxseq_ 26
+ 6.840077 0 2 tcp 1040 ------- 1 0.0 4.0 27 58
6.84008  0  0  4  0  maxseq_ 27
- 6.840079 0 2 tcp 1040 ------- 1 0.0 4.0 27 58
r 6.840085 2 0 ack 40 ------- 1 4.0 0.0 13 41
6.84009  0  0  4  0  ack_ 13
6.84009  0  0  4  0  cwnd_ 16.000
+ 6.840085 0 2 tcp 1040 ------- 1 0.0 4.0 28 59
- 6.840085 0 2 tcp 1040 ------- 1 0.0 4.0 28 59
6.84009  0  0  4  0  maxseq_ 28
+ 6.840085 0 2 tcp 1040 ------- 1 0.0 4.0 29 60
6.84009  0  0  4  0  maxseq_ 29
- 6.840087 0 2 tcp 1040 ------- 1 0.0 4.0 29 60
r 7.385029 0 2 tcp 1040 ------- 1 0.0 4.0 14 45
+ 7.385029 2 3 tcp 1040 ------- 1 0.0 4.0 14 45
- 7.385029 2 3 tcp 1040 ------- 1 0.0 4.0 14 45
r 7.385031 0 2 tcp 1040 ------- 1 0.0 4.0 15 46
+ 7.385031 2 3 tcp 1040 ------- 1 0.0 4.0 15 46
r 7.385037 0 2 tcp 1040 ------- 1 0.0 4.0 16 47
+ 7.385037 2 3 tcp 1040 ------- 1 0.0 4.0 16 47
- 7.385037 2 3 tcp 1040 ------- 1 0.0 4.0 15 46
r 7.385039 0 2 tcp 1040 ------- 1 0.0 4.0 17 48
+ 7.385039 2 3 tcp 1040 ------- 1 0.0 4.0 17 48
r 7.385046 0 2 tcp 1040 ------- 1 0.0 4.0 18 49
+ 7.385046 2 3 tcp 1040 ------- 1 0.0 4.0 18 49
- 7.385046 2 3 tcp 1040 ------- 1 0.0 4.0 16 47
r 7.385048 0 2 tcp 1040 ------- 1 0.0 4.0 19 50
+ 7.385048 2 3 tcp 1040 ------- 1 0.0 4.0 19 50
r 7.385054 0 2 tcp 1040 ------- 1 0.0 4.0 20 51
+ 7.385054 2 3 tcp 1040 ------- 1 0.0 4.0 20 51
- 7.385054 2 3 tcp 1040 ------- 1 0.0 4.0 17 48
r 7.385056 0 2 tcp 1040 ------- 1 0.0 4.0 21 52
+ 7.385056 2 3 tcp 1040 ------- 1 0.0 4.0 21 52
r 7.385062 0 2 tcp 1040 ------- 1 0.0 4.0 22 53
+ 7.385062 2 3 tcp 1040 ------- 1 0.0 4.0 22 53
- 7.385062 2 3 tcp 1040 ------- 1 0.0 4.0 18 49
r 7.385064 0 2 tcp 1040 ------- 1 0.0 4.0 23 54
+ 7.385064 2 3 tcp 1040 ------- 1 0.0 4.0 23 54
r 7.385071 0 2 tcp 1040 ------- 1 0.0 4.0 24 55
+ 7.385071 2 3 tcp 1040 ------- 1 0.0 4.0 24 55
- 7.385071 2 3 tcp 1040 ------- 1 0.0 4.0 19 50
r 7.385073 0 2 tcp 1040 ------- 1 0.0 4.0 25 56
+ 7.385073 2 3 tcp 1040 ------- 1 0.0 4.0 25 56
r 7.385079 0 2 tcp 1040 ------- 1 0.0 4.0 26 57
+ 7.385079 2 3 tcp 1040 ------- 1 0.0 4.0 26 57
- 7.385079 2 3 tcp 1040 ------- 1 0.0 4.0 20 51
r 7.385081 0 2 tcp 1040 ------- 1 0.0 4.0 27 58
+ 7.385081 2 3 tcp 1040 ------- 1 0.0 4.0 27 58
r 7.385087 0 2 tcp 1040 ------- 1 0.0 4.0 28 59
+ 7.385087 2 3 tcp 1040 ------- 1 0.0 4.0 28 59
- 7.385087 2 3 tcp 1040 ------- 1 0.0 4.0 21 52
r 7.385089 0 2 tcp 1040 ------- 1 0.0 4.0 29 60
+ 7.385089 2 3 tcp 1040 ------- 1 0.0 4.0 29 60
- 7.385096 2 3 tcp 1040 ------- 1 0.0 4.0 22 53
- 7.385104 2 3 tcp 1040 ------- 1 0.0 4.0 23 54
- 7.385112 2 3 tcp 1040 ------- 1 0.0 4.0 24 55
- 7.38512 2 3 tcp 1040 ------- 1 0.0 4.0 25 56
- 7.385129 2 3 tcp 1040 ------- 1 0.0 4.0 26 57
- 7.385137 2 3 tcp 1040 ------- 1 0.0 4.0 27 58
- 7.385145 2 3 tcp 1040 ------- 1 0.0 4.0 28 59
- 7.385154 2 3 tcp 1040 ------- 1 0.0 4.0 29 60
r 7.435037 2 3 tcp 1040 ------- 1 0.0 4.0 14 45
+ 7.435037 3 4 tcp 1040 ------- 1 0.0 4.0 14 45
- 7.435037 3 4 tcp 1040 ------- 1 0.0 4.0 14 45
r 7.435046 2 3 tcp 1040 ------- 1 0.0 4.0 15 46
+ 7.435046 3 4 tcp 1040 ------- 1 0.0 4.0 15 46
- 7.435046 3 4 tcp 1040 ------- 1 0.0 4.0 15 46
r 7.435054 2 3 tcp 1040 ------- 1 0.0 4.0 16 47
+ 7.435054 3 4 tcp 1040 ------- 1 0.0 4.0 16 47
- 7.435054 3 4 tcp 1040 ------- 1 0.0 4.0 16 47
r 7.435062 2 3 tcp 1040 ------- 1 0.0 4.0 17 48
+ 7.435062 3 4 tcp 1040 ------- 1 0.0 4.0 17 48
- 7.435062 3 4 tcp 1040 ------- 1 0.0 4.0 17 48
r 7.435071 2 3 tcp 1040 ------- 1 0.0 4.0 18 49
+ 7.435071 3 4 tcp 1040 ------- 1 0.0 4.0 18 49
- 7.435071 3 4 tcp 1040 ------- 1 0.0 4.0 18 49
r 7.435079 2 3 tcp 1040 ------- 1 0.0 4.0 19 50
+ 7.435079 3 4 tcp 1040 ------- 1 0.0 4.0 19 50
- 7.435079 3 4 tcp 1040 ------- 1 0.0 4.0 19 50
r 7.435087 2 3 tcp 1040 ------- 1 0.0 4.0 20 51
+ 7.435087 3 4 tcp 1040 ------- 1 0.0 4.0 20 51
- 7.435087 3 4 tcp 1040 ------- 1 0.0 4.0 20 51
r 7.435096 2 3 tcp 1040 ------- 1 0.0 4.0 21 52
+ 7.435096 3 4 tcp 1040 ------- 1 0.0 4.0 21 52
- 7.435096 3 4 tcp 1040 ------- 1 0.0 4.0 21 52
r 7.435104 2 3 tcp 1040 ------- 1 0.0 4.0 22 53
+ 7.435104 3 4 tcp 1040 ------- 1 0.0 4.0 22 53
- 7.435104 3 4 tcp 1040 ------- 1 0.0 4.0 22 53
r 7.435112 2 3 tcp 1040 ------- 1 0.0 4.0 23 54
+ 7.435112 3 4 tcp 1040 ------- 1 0.0 4.0 23 54
- 7.435112 3 4 tcp 1040 ------- 1 0.0 4.0 23 54
r 7.43512 2 3 tcp 1040 ------- 1 0.0 4.0 24 55
+ 7.43512 3 4 tcp 1040 ------- 1 0.0 4.0 24 55
- 7.43512 3 4 tcp 1040 ------- 1 0.0 4.0 24 55
r 7.435129 2 3 tcp 1040 ------- 1 0.0 4.0 25 56
+ 7.435129 3 4 tcp 1040 ------- 1 0.0 4.0 25 56
- 7.435129 3 4 tcp 1040 ------- 1 0.0 4.0 25 56
r 7.435137 2 3 tcp 1040 ------- 1 0.0 4.0 26 57
+ 7.435137 3 4 tcp 1040 ------- 1 0.0 4.0 26 57
- 7.435137 3 4 tcp 1040 ------- 1 0.0 4.0 26 57
r 7.435145 2 3 tcp 1040 ------- 1 0.0 4.0 27 58
+ 7.435145 3 4 tcp 1040 ------- 1 0.0 4.0 27 58
- 7.435145 3 4 tcp 1040 ------- 1 0.0 4.0 27 58
r 7.435154 2 3 tcp 1040 ------- 1 0.0 4.0 28 59
+ 7.435154 3 4 tcp 1040 ------- 1 0.0 4.0 28 59
- 7.435154 3 4 tcp 1040 ------- 1 0.0 4.0 28 59
r 7.435162 2 3 tcp 1040 ------- 1 0.0 4.0 29 60
+ 7.435162 3 4 tcp 1040 ------- 1 0.0 4.0 29 60
- 7.435162 3 4 tcp 1040 ------- 1 0.0 4.0 29 60
r 7.607024 1 2 tcp 1040 ------- 2 1.0 5.0 5 42
+ 7.607024 2 3 tcp 1040 ------- 2 1.0 5.0 5 42
- 7.607024 2 3 tcp 1040 ------- 2 1.0 5.0 5 42
r 7.607033 1 2 tcp 1040 ------- 2 1.0 5.0 6 43
+ 7.607033 2 3 tcp 1040 ------- 2 1.0 5.0 6 43
- 7.607033 2 3 tcp 1040 ------- 2 1.0 5.0 6 43
r 7.607041 1 2 tcp 1040 ------- 2 1.0 5.0 7 44
+ 7.607041 2 3 tcp 1040 ------- 2 1.0 5.0 7 44
- 7.607041 2 3 tcp 1040 ------- 2 1.0 5.0 7 44
r 7.657033 2 3 tcp 1040 ------- 2 1.0 5.0 5 42
+ 7.657033 3 5 tcp 1040 ------- 2 1.0 5.0 5 42
- 7.657033 3 5 tcp 1040 ------- 2 1.0 5.0 5 42
r 7.657041 2 3 tcp 1040 ------- 2 1.0 5.0 6 43
+ 7.657041 3 5 tcp 1040 ------- 2 1.0 5.0 6 43
- 7.657041 3 5 tcp 1040 ------- 2 1.0 5.0 6 43
r 7.657049 2 3 tcp 1040 ------- 2 1.0 5.0 7 44
+ 7.657049 3 5 tcp 1040 ------- 2 1.0 5.0 7 44
- 7.657049 3 5 tcp 1040 ------- 2 1.0 5.0 7 44
r 7.980039 3 4 tcp 1040 ------- 1 0.0 4.0 14 45
+ 7.980039 4 3 ack 40 ------- 1 4.0 0.0 14 61
- 7.980039 4 3 ack 40 ------- 1 4.0 0.0 14 61
r 7.980048 3 4 tcp 1040 ------- 1 0.0 4.0 15 46
+ 7.980048 4 3 ack 40 ------- 1 4.0 0.0 15 62
- 7.980048 4 3 ack 40 ------- 1 4.0 0.0 15 62
r 7.980056 3 4 tcp 1040 ------- 1 0.0 4.0 16 47
+ 7.980056 4 3 ack 40 ------- 1 4.0 0.0 16 63
- 7.980056 4 3 ack 40 ------- 1 4.0 0.0 16 63
r 7.980064 3 4 tcp 1040 ------- 1 0.0 4.0 17 48
+ 7.980064 4 3 ack 40 ------- 1 4.0 0.0 17 64
- 7.980064 4 3 ack 40 ------- 1 4.0 0.0 17 64
r 7.980073 3 4 tcp 1040 ------- 1 0.0 4.0 18 49
+ 7.980073 4 3 ack 40 ------- 1 4.0 0.0 18 65
- 7.980073 4 3 ack 40 ------- 1 4.0 0.0 18 65
r 7.980081 3 4 tcp 1040 ------- 1 0.0 4.0 19 50
+ 7.980081 4 3 ack 40 ------- 1 4.0 0.0 19 66
- 7.980081 4 3 ack 40 ------- 1 4.0 0.0 19 66
r 7.980089 3 4 tcp 1040 ------- 1 0.0 4.0 20 51
+ 7.980089 4 3 ack 40 ------- 1 4.0 0.0 20 67
- 7.980089 4 3 ack 40 ------- 1 4.0 0.0 20 67
r 7.980098 3 4 tcp 1040 ------- 1 0.0 4.0 21 52
+ 7.980098 4 3 ack 40 ------- 1 4.0 0.0 21 68
- 7.980098 4 3 ack 40 ------- 1 4.0 0.0 21 68
r 7.980106 3 4 tcp 1040 ------- 1 0.0 4.0 22 53
+ 7.980106 4 3 ack 40 ------- 1 4.0 0.0 22 69
- 7.980106 4 3 ack 40 ------- 1 4.0 0.0 22 69
r 7.980114 3 4 tcp 1040 ------- 1 0.0 4.0 23 54
+ 7.980114 4 3 ack 40 ------- 1 4.0 0.0 23 70
- 7.980114 4 3 ack 40 ------- 1 4.0 0.0 23 70
r 7.980123 3 4 tcp 1040 ------- 1 0.0 4.0 24 55
+ 7.980123 4 3 ack 40 ------- 1 4.0 0.0 24 71
- 7.980123 4 3 ack 40 ------- 1 4.0 0.0 24 71
r 7.980131 3 4 tcp 1040 ------- 1 0.0 4.0 25 56
+ 7.980131 4 3 ack 40 ------- 1 4.0 0.0 25 72
- 7.980131 4 3 ack 40 ------- 1 4.0 0.0 25 72
r 7.980139 3 4 tcp 1040 ------- 1 0.0 4.0 26 57
+ 7.980139 4 3 ack 40 ------- 1 4.0 0.0 26 73
- 7.980139 4 3 ack 40 ------- 1 4.0 0.0 26 73
r 7.980148 3 4 tcp 1040 ------- 1 0.0 4.0 27 58
+ 7.980148 4 3 ack 40 ------- 1 4.0 0.0 27 74
- 7.980148 4 3 ack 40 ------- 1 4.0 0.0 27 74
r 7.980156 3 4 tcp 1040 ------- 1 0.0 4.0 28 59
+ 7.980156 4 3 ack 40 ------- 1 4.0 0.0 28 75
- 7.980156 4 3 ack 40 ------- 1 4.0 0.0 28 75
r 7.980164 3 4 tcp 1040 ------- 1 0.0 4.0 29 60
+ 7.980164 4 3 ack 40 ------- 1 4.0 0.0 29 76
- 7.980164 4 3 ack 40 ------- 1 4.0 0.0 29 76
r 8.480035 3 5 tcp 1040 ------- 2 1.0 5.0 5 42
+ 8.480035 5 3 ack 40 ------- 2 5.0 1.0 5 77
- 8.480035 5 3 ack 40 ------- 2 5.0 1.0 5 77
r 8.480043 3 5 tcp 1040 ------- 2 1.0 5.0 6 43
+ 8.480043 5 3 ack 40 ------- 2 5.0 1.0 6 78
- 8.480043 5 3 ack 40 ------- 2 5.0 1.0 6 78
r 8.480051 3 5 tcp 1040 ------- 2 1.0 5.0 7 44
+ 8.480051 5 3 ack 40 ------- 2 5.0 1.0 7 79
- 8.480051 5 3 ack 40 ------- 2 5.0 1.0 7 79
r 8.525039 4 3 ack 40 ------- 1 4.0 0.0 14 61
+ 8.525039 3 2 ack 40 ------- 1 4.0 0.0 14 61
- 8.525039 3 2 ack 40 ------- 1 4.0 0.0 14 61